<?xml version="1.0"?>
<VTKFile type="PolyData" version="0.1" byte_order="LittleEndian" compressor="vtkZLibDataCompressor">
	<PolyData>
		<Piece NumberOfPoints="210" NumberOfVerts="0" NumberOfLines="0" NumberOfStrips="0" NumberOfPolys="416">
		<PointData Normals="Normals">
		<DataArray type="Float32" Name="Normals" NumberOfComponents="3" format="ascii">
			-0.123342 -0.991508  0.041224
			 0.550244 -0.473015  0.688105
			 0.745508 -0.594452  0.301405
			 0.341388 -0.748940 -0.567929
			-0.425966 -0.323749 -0.844831
			-0.744721 -0.629925 -0.220420
			 0.911600 -0.378717 -0.159870
			 0.699741 -0.365355 -0.613904
			-0.960974  0.045113  0.272935
			-0.528258 -0.344084  0.776241
			 0.992267  0.017757 -0.122844
			 0.452914 -0.019168 -0.891348
			 0.869160  0.037682  0.493093
			-0.236304  0.060512  0.969793
			 0.457838  0.034327  0.888372
			-0.414154  0.017078 -0.910047
			-0.946386  0.048236 -0.319417
			 0.832056  0.013562  0.554525
			-0.553730  0.019662  0.832464
			-0.983551  0.057505  0.171230
			-0.022481 -0.154977 -0.987662
			-0.397002 -0.040473 -0.916925
			 0.374619  0.009834  0.927127
			 0.992352 -0.003841  0.123380
			 0.751213 -0.065403 -0.656811
			-0.957871  0.037482 -0.284744
			-0.886273 -0.041104 -0.461335
			-0.538137  0.083162  0.838745
			-0.984496  0.066796  0.162190
			 0.726833 -0.111122 -0.677765
			 0.074086 -0.142056 -0.987082
			 0.997701 -0.027452  0.061962
			 0.418917  0.041337  0.907083
			 0.833675  0.043471  0.550542
			-0.404682 -0.170538 -0.898415
			-0.581688  0.084474  0.809013
			-0.988509  0.069450  0.134266
			 0.336283 -0.178186 -0.924750
			-0.235792 -0.165162 -0.957666
			 0.934260 -0.097565 -0.342985
			 0.961607 -0.071751  0.264886
			 0.768717  0.013250  0.639452
			 0.295607  0.066961  0.952960
			-0.834954 -0.058714 -0.547178
			-0.647363  0.102453  0.755265
			-0.988156  0.093198  0.121912
			-0.096340 -0.204733 -0.974065
			-0.381837 -0.133963 -0.914470
			 0.990881 -0.091329 -0.099064
			 0.598112 -0.157874 -0.785708
			 0.960551 -0.024458  0.277027
			 0.325675  0.052950  0.943998
			 0.657155 -0.080817  0.749411
			-0.946509  0.001578 -0.322672
			-0.575661  0.037602  0.816824
			-0.926687 -0.048312 -0.372717
			-0.987527  0.079138  0.136115
			 0.370472 -0.241033 -0.897025
			-0.100840 -0.206852 -0.973162
			 0.975509 -0.130691  0.176923
			 0.878362 -0.174442 -0.445028
			 0.788070 -0.062351  0.612420
			 0.319901 -0.056230  0.945781
			-0.621642 -0.173356 -0.763878
			-0.932428 -0.062444 -0.355919
			-0.970664  0.077245  0.227693
			-0.290964  0.126082  0.948390
			 0.413923 -0.000528  0.910312
			 0.857899 -0.280919 -0.430226
			 0.554475 -0.247629 -0.794505
			 0.960502 -0.252936  0.116017
			 0.091407 -0.306698 -0.947408
			-0.465693 -0.229541 -0.854659
			 0.809482 -0.105313  0.577622
			-0.887742  0.117448  0.445106
			-0.987730  0.073791  0.137641
			-0.971827  0.002375 -0.235685
			 0.827482 -0.431515 -0.359261
			 0.531047 -0.323821 -0.783026
			 0.951769 -0.305220  0.031259
			-0.221348  0.158864  0.962168
			 0.376175 -0.011860  0.926473
			 0.047923 -0.311783 -0.948944
			-0.584439 -0.192865 -0.788184
			 0.801901 -0.185089  0.568064
			-0.985512 -0.020216  0.168396
			-0.620676 -0.006362  0.784042
			-0.956300 -0.139337 -0.257051
			 0.716152 -0.589562 -0.373555
			 0.432714 -0.502492 -0.748505
			 0.875070 -0.464381  0.136393
			 0.873678 -0.228472  0.429519
			 0.042156 -0.008190  0.999077
			 0.582295 -0.078638  0.809166
			-0.032879 -0.333589 -0.942145
			-0.669158 -0.247622 -0.700651
			 0.799245 -0.409097  0.440281
			-0.937499 -0.088548  0.336535
			-0.967351 -0.208394 -0.144235
			 0.801464 -0.474413 -0.364126
			 0.518268 -0.553619 -0.651847
			 0.886221 -0.456804  0.077085
			 0.264155 -0.554041 -0.789469
			-0.067768 -0.461029 -0.884794
			 0.215381 -0.153709  0.964357
			 0.619139 -0.310603  0.721244
			-0.670544 -0.275222 -0.688929
			-0.552926 -0.004685  0.833217
			-0.968213 -0.199998  0.150216
			 0.265787 -0.572873 -0.775354
			 0.939125 -0.243200 -0.242688
			 0.812249 -0.415836  0.409062
			-0.857904 -0.169232  0.485140
			-0.932921 -0.283924 -0.221462
			 0.540678 -0.414258 -0.732160
			 0.745783 -0.317127 -0.585865
			 0.626948 -0.427012  0.651611
			-0.321919 -0.316644  0.892247
			 0.332311 -0.354308  0.874091
			-0.178544 -0.529021 -0.829614
			-0.654856 -0.383901 -0.650987
			 0.939779 -0.312980  0.137326
			 0.815117 -0.085785 -0.572909
			 0.858873 -0.077199  0.506337
			-0.933518 -0.319052  0.163552
			-0.711290 -0.441768  0.546725
			 0.225217 -0.273711 -0.935072
			-0.104334 -0.349900 -0.930959
			 0.975169 -0.087309  0.203526
			 0.988280 -0.040246 -0.147249
			 0.386314 -0.330194  0.861240
			 0.686477 -0.170572  0.706862
			-0.087907 -0.423691  0.901531
			-0.913123 -0.340129 -0.224763
			-0.725191 -0.347943 -0.594167
			-0.475424 -0.370519 -0.797927
			 0.541429 -0.138557 -0.829251
			-0.943159 -0.320349  0.088470
			-0.714670 -0.303078 -0.630390
			 0.765381  0.266129 -0.585975
			 0.500327  0.187379 -0.845318
			 0.922348  0.307653 -0.233716
			 0.545489 -0.012391  0.838027
			 0.704057  0.301954  0.642751
			-0.442263 -0.393784  0.805815
			 0.165337 -0.208299  0.963989
			 0.098495  0.132245 -0.986311
			-0.215435  0.021769 -0.976276
			-0.464348 -0.107971 -0.879047
			-0.850866 -0.380550  0.362227
			 0.883591  0.352955  0.307718
			-0.906259 -0.295538 -0.302244
			 0.473664  0.768883  0.429490
			-0.901151 -0.376647  0.214623
			-0.182144 -0.127376  0.974987
			-0.304824  0.298747 -0.904341
			-0.801170 -0.321380 -0.504818
			-0.924198 -0.368424 -0.100601
			 0.487311  0.817700 -0.306423
			 0.284684  0.744273 -0.604163
			-0.013429  0.566635 -0.823859
			 0.355321  0.102871  0.929066
			 0.555188  0.491111  0.671250
			-0.526709  0.045670 -0.848818
			 0.584077  0.805546  0.099752
			-0.711033 -0.328418  0.621751
			 0.270078  0.962299  0.032225
			 0.537418  0.651960  0.534912
			 0.004686  0.132672  0.991149
			 0.365173  0.883145  0.294455
			-0.174054  0.480045 -0.859804
			-0.933760 -0.357748  0.010426
			-0.803718 -0.294970  0.516750
			 0.339466  0.368239  0.865542
			-0.622918 -0.002908 -0.782282
			-0.834806 -0.311656 -0.453838
			-0.398385  0.023779  0.916910
			 0.083020  0.780845 -0.619184
			 0.223006  0.919648 -0.323288
			-0.305652  0.274901 -0.911595
			 0.358400  0.752625  0.552363
			 0.403416  0.890231  0.211529
			-0.310220  0.288397 -0.905865
			-0.985565 -0.156067  0.065608
			-0.908884 -0.023835  0.416367
			-0.524031  0.269177  0.808044
			-0.950009 -0.147229 -0.275331
			-0.704588  0.012927 -0.709498
			 0.054329  0.533204 -0.844241
			 0.367023  0.928083 -0.062891
			 0.303207  0.776196 -0.552798
			-0.084672  0.476505  0.875085
			 0.607201  0.787407 -0.106282
			-0.902267  0.249822  0.351431
			 0.204062  0.863777  0.460704
			-0.299053  0.667337  0.682076
			-0.999379  0.027968  0.021442
			-0.529733  0.259275 -0.807564
			-0.898741  0.095708 -0.427907
			-0.566635  0.559697  0.604702
			-0.164166  0.453658 -0.875925
			 0.259004  0.630536 -0.731670
			-0.246740  0.867403 -0.432124
			-0.058351  0.884901  0.462110
			-0.632899  0.512991 -0.579895
			-0.710238  0.667819  0.222666
			-0.792143  0.610254  0.009966
			 0.021899  0.992272  0.122135
			 0.333353  0.787423 -0.518498
			-0.515436  0.712796  0.475655
		</DataArray>
	</PointData>
	<Points>
		<DataArray type="Float32" NumberOfComponents="3" format="ascii">
			-0.030212 -0.124912 -0.021973
			-0.026277 -0.123622 -0.019867
			-0.022511 -0.121777 -0.023326
			-0.025199 -0.122152 -0.029297
			-0.029924 -0.124022 -0.028947
			-0.030897 -0.124536 -0.027719
			-0.021808 -0.121130 -0.026676
			-0.022429 -0.121172 -0.028459
			-0.029961 -0.118304 -0.022345
			-0.028794 -0.124679 -0.019140
			-0.021691 -0.114601 -0.026805
			-0.023047 -0.114930 -0.028564
			-0.022144 -0.115068 -0.024189
			-0.028611 -0.118095 -0.019529
			-0.026024 -0.116985 -0.020490
			-0.029478 -0.117353 -0.029176
			-0.030499 -0.117868 -0.028116
			-0.022977 -0.108990 -0.023581
			-0.028874 -0.111686 -0.019896
			-0.029717 -0.111673 -0.022947
			-0.025469 -0.109287 -0.029569
			-0.029450 -0.110866 -0.029242
			-0.027403 -0.111126 -0.019803
			-0.022060 -0.108386 -0.025803
			-0.022683 -0.108298 -0.028751
			-0.029877 -0.111114 -0.028511
			-0.029496 -0.104424 -0.029147
			-0.028451 -0.105034 -0.020064
			-0.029491 -0.105095 -0.023120
			-0.022351 -0.101623 -0.029445
			-0.024762 -0.102470 -0.030225
			-0.021781 -0.101657 -0.027162
			-0.026197 -0.104092 -0.020675
			-0.022590 -0.102324 -0.023998
			-0.028893 -0.104105 -0.029914
			-0.028068 -0.098346 -0.020690
			-0.028989 -0.098342 -0.023918
			-0.023119 -0.095312 -0.030692
			-0.027620 -0.096985 -0.031325
			-0.021210 -0.094724 -0.029328
			-0.021405 -0.095087 -0.026751
			-0.023357 -0.096173 -0.023800
			-0.027170 -0.098002 -0.020649
			-0.028920 -0.097609 -0.030247
			-0.027899 -0.091742 -0.021309
			-0.028726 -0.091703 -0.024521
			-0.025601 -0.089591 -0.032600
			-0.027680 -0.090429 -0.032305
			-0.021020 -0.088133 -0.029758
			-0.021887 -0.088294 -0.031314
			-0.021287 -0.088623 -0.026293
			-0.026942 -0.091381 -0.021220
			-0.022761 -0.089430 -0.024173
			-0.028537 -0.090922 -0.030873
			-0.026929 -0.084858 -0.021645
			-0.028400 -0.084277 -0.031959
			-0.027924 -0.084853 -0.025150
			-0.022909 -0.082015 -0.033161
			-0.025642 -0.083010 -0.033731
			-0.020118 -0.081459 -0.028447
			-0.020491 -0.081288 -0.031285
			-0.021581 -0.082378 -0.025293
			-0.025961 -0.084496 -0.021526
			-0.027977 -0.084022 -0.032780
			-0.028144 -0.077564 -0.033249
			-0.027511 -0.078252 -0.024890
			-0.026340 -0.078093 -0.022258
			-0.024021 -0.077123 -0.022889
			-0.019601 -0.074329 -0.032575
			-0.021232 -0.074759 -0.034376
			-0.019249 -0.074602 -0.028900
			-0.025132 -0.076142 -0.035536
			-0.027096 -0.076943 -0.035185
			-0.020575 -0.075463 -0.025799
			-0.026684 -0.074784 -0.024112
			-0.027857 -0.074797 -0.028060
			-0.027930 -0.074179 -0.033856
			-0.017742 -0.070392 -0.032408
			-0.022196 -0.071729 -0.035902
			-0.017185 -0.070425 -0.030174
			-0.025643 -0.074500 -0.023040
			-0.023138 -0.073475 -0.023529
			-0.024892 -0.072680 -0.036733
			-0.026723 -0.073463 -0.036086
			-0.018875 -0.071442 -0.026942
			-0.027468 -0.071484 -0.027418
			-0.026132 -0.071412 -0.023415
			-0.027939 -0.070865 -0.034595
			-0.015361 -0.066028 -0.034261
			-0.019349 -0.067296 -0.036753
			-0.015012 -0.066106 -0.032349
			-0.016892 -0.067253 -0.028593
			-0.024764 -0.070925 -0.023031
			-0.020533 -0.069039 -0.025238
			-0.024887 -0.069305 -0.037971
			-0.027116 -0.070328 -0.036545
			-0.015568 -0.063468 -0.028927
			-0.027514 -0.068422 -0.026024
			-0.028532 -0.067832 -0.034849
			-0.012287 -0.061432 -0.035776
			-0.014208 -0.062004 -0.037329
			-0.012219 -0.061523 -0.034732
			-0.021033 -0.064432 -0.039272
			-0.024307 -0.065718 -0.039118
			-0.023695 -0.067250 -0.023257
			-0.019379 -0.065350 -0.025308
			-0.027577 -0.067181 -0.037359
			-0.025975 -0.068079 -0.023752
			-0.028977 -0.065280 -0.030275
			-0.019805 -0.060428 -0.041895
			-0.010998 -0.057682 -0.035920
			-0.013002 -0.059318 -0.028224
			-0.027098 -0.065144 -0.024964
			-0.029070 -0.064744 -0.035402
			-0.015359 -0.058810 -0.040961
			-0.012432 -0.057925 -0.038713
			-0.015953 -0.060804 -0.025152
			-0.025119 -0.064632 -0.022686
			-0.021879 -0.063366 -0.022770
			-0.024678 -0.062373 -0.041391
			-0.027580 -0.063782 -0.038847
			-0.010994 -0.058036 -0.032732
			-0.011996 -0.054498 -0.038930
			-0.011863 -0.055687 -0.027816
			-0.030022 -0.062287 -0.031738
			-0.027321 -0.062215 -0.022998
			-0.018932 -0.056606 -0.044127
			-0.023841 -0.058538 -0.043861
			-0.010246 -0.054670 -0.031314
			-0.010174 -0.054224 -0.035053
			-0.020974 -0.059920 -0.021527
			-0.014979 -0.057274 -0.024419
			-0.025485 -0.061691 -0.021322
			-0.030207 -0.061933 -0.035558
			-0.028842 -0.061011 -0.039068
			-0.025243 -0.059155 -0.043198
			-0.015969 -0.055596 -0.042898
			-0.031021 -0.059403 -0.032058
			-0.028675 -0.057503 -0.040940
			-0.012338 -0.051319 -0.039619
			-0.015586 -0.052224 -0.042783
			-0.010626 -0.051123 -0.035430
			-0.017446 -0.055255 -0.022081
			-0.013536 -0.053233 -0.026629
			-0.027285 -0.059230 -0.020641
			-0.023425 -0.057795 -0.020096
			-0.019860 -0.053703 -0.044370
			-0.024938 -0.055715 -0.043988
			-0.026351 -0.056333 -0.043355
			-0.028575 -0.059521 -0.022512
			-0.010539 -0.051523 -0.031537
			-0.030919 -0.058902 -0.036196
			-0.013651 -0.049703 -0.029667
			-0.030780 -0.056687 -0.026579
			-0.027486 -0.056172 -0.019761
			-0.025465 -0.052783 -0.043108
			-0.030738 -0.055235 -0.039443
			-0.032189 -0.056422 -0.033846
			-0.013263 -0.048578 -0.038407
			-0.015533 -0.049167 -0.041005
			-0.020474 -0.050803 -0.043506
			-0.020774 -0.053484 -0.020523
			-0.018460 -0.052414 -0.022091
			-0.028829 -0.054189 -0.042183
			-0.012143 -0.048621 -0.034129
			-0.028948 -0.056617 -0.020850
			-0.017578 -0.047479 -0.034257
			-0.020373 -0.049868 -0.022551
			-0.024547 -0.051812 -0.019638
			-0.017928 -0.048113 -0.029792
			-0.026327 -0.050094 -0.041201
			-0.033412 -0.053626 -0.034159
			-0.031009 -0.054083 -0.021722
			-0.022335 -0.050894 -0.020177
			-0.030987 -0.051973 -0.040553
			-0.032541 -0.052802 -0.038521
			-0.029232 -0.053544 -0.020375
			-0.021890 -0.048512 -0.039967
			-0.018891 -0.047674 -0.037065
			-0.029730 -0.051431 -0.041041
			-0.023620 -0.047997 -0.021603
			-0.023279 -0.047066 -0.028768
			-0.030552 -0.048638 -0.039932
			-0.034239 -0.050791 -0.033448
			-0.032181 -0.051208 -0.022564
			-0.031026 -0.050902 -0.021296
			-0.034068 -0.050350 -0.036801
			-0.032848 -0.049652 -0.038822
			-0.027018 -0.047282 -0.039816
			-0.021902 -0.045813 -0.035208
			-0.023843 -0.046246 -0.038075
			-0.025583 -0.048846 -0.020813
			-0.025641 -0.043995 -0.035509
			-0.033394 -0.048013 -0.026424
			-0.027025 -0.045856 -0.023629
			-0.028292 -0.046383 -0.023310
			-0.034330 -0.047513 -0.034155
			-0.033223 -0.046635 -0.038176
			-0.033865 -0.046951 -0.037577
			-0.031946 -0.047645 -0.024688
			-0.030269 -0.045422 -0.038788
			-0.027598 -0.044503 -0.037748
			-0.031438 -0.042823 -0.037150
			-0.030226 -0.043303 -0.028641
			-0.033404 -0.043651 -0.036559
			-0.033370 -0.044361 -0.030075
			-0.034269 -0.044213 -0.034519
			-0.027094 -0.041451 -0.034360
			-0.027647 -0.041534 -0.035528
			-0.031754 -0.043913 -0.028472
		</DataArray>
	</Points>
			<Polys>
				<DataArray type="Int32" Name="connectivity" format="ascii">
					2 1 0 
					5 4 3 
					3 7 6 
					3 6 2 
					9 8 0 
					1 9 0 
					3 2 0 
					0 8 5 
					5 3 0 
					6 11 10 
					10 12 6 
					1 14 13 
					11 6 7 
					11 7 3 
					15 11 3 
					3 4 15 
					4 16 15 
					12 2 6 
					2 12 14 
					4 5 16 
					5 8 16 
					1 2 14 
					9 1 13 
					13 8 9 
					10 17 12 
					18 13 14 
					13 18 8 
					8 19 16 
					21 20 11 
					14 22 18 
					24 23 10 
					23 17 10 
					12 17 22 
					21 11 15 
					25 21 15 
					22 14 12 
					18 19 8 
					10 11 24 
					11 20 24 
					15 16 25 
					16 19 25 
					26 21 25 
					21 26 20 
					27 18 22 
					18 27 19 
					19 28 25 
					24 30 29 
					29 31 24 
					17 33 32 
					20 26 34 
					22 17 32 
					32 27 22 
					27 28 19 
					24 20 30 
					20 34 30 
					23 24 31 
					31 33 23 
					28 26 25 
					17 23 33 
					35 27 32 
					27 35 28 
					28 36 26 
					29 38 37 
					29 37 39 
					39 40 29 
					40 41 31 
					32 42 35 
					33 41 42 
					29 30 38 
					30 43 38 
					31 29 40 
					34 26 43 
					26 36 43 
					30 34 43 
					42 32 33 
					35 36 28 
					41 33 31 
					44 35 42 
					35 44 36 
					36 45 43 
					47 46 37 
					49 48 39 
					48 50 39 
					41 52 51 
					37 38 47 
					38 53 47 
					42 41 51 
					51 44 42 
					44 45 36 
					39 37 49 
					37 46 49 
					50 40 39 
					40 50 52 
					53 38 43 
					45 53 43 
					41 40 52 
					54 44 51 
					44 54 45 
					55 47 53 
					47 55 46 
					45 56 53 
					58 57 49 
					60 59 48 
					59 61 48 
					52 62 54 
					52 61 62 
					55 63 46 
					58 49 46 
					63 58 46 
					48 49 60 
					49 57 60 
					53 56 55 
					51 52 54 
					54 56 45 
					61 52 50 
					61 50 48 
					64 63 55 
					63 64 58 
					54 65 56 
					56 65 55 
					61 67 66 
					60 69 68 
					68 70 60 
					57 72 71 
					62 61 66 
					54 62 66 
					66 65 54 
					60 57 69 
					57 71 69 
					59 60 70 
					70 73 59 
					55 65 64 
					73 61 59 
					61 73 67 
					57 58 72 
					58 64 72 
					66 74 65 
					65 75 64 
					64 76 72 
					68 78 77 
					68 77 79 
					67 81 80 
					69 82 78 
					71 83 82 
					79 70 68 
					70 79 84 
					78 68 69 
					75 76 64 
					73 70 84 
					84 81 73 
					81 67 73 
					66 67 80 
					80 74 66 
					71 72 83 
					72 76 83 
					74 75 65 
					82 69 71 
					75 85 76 
					86 80 81 
					80 86 74 
					74 85 75 
					76 87 83 
					77 89 88 
					88 90 77 
					90 91 77 
					81 93 92 
					81 92 86 
					78 94 89 
					91 84 79 
					84 91 93 
					91 79 77 
					93 81 84 
					86 85 74 
					78 82 94 
					82 95 94 
					85 87 76 
					89 77 78 
					82 83 95 
					83 87 95 
					90 96 91 
					86 97 85 
					85 98 87 
					87 98 95 
					88 100 99 
					99 101 88 
					89 103 102 
					93 105 104 
					106 103 94 
					93 91 105 
					97 98 85 
					88 89 100 
					89 102 100 
					101 90 88 
					90 101 96 
					96 105 91 
					103 89 94 
					104 92 93 
					92 104 107 
					86 92 107 
					107 97 86 
					94 95 106 
					95 98 106 
					97 108 98 
					109 100 102 
					99 110 101 
					101 111 96 
					107 112 97 
					98 113 106 
					100 109 114 
					100 114 115 
					111 116 96 
					104 118 117 
					102 119 109 
					102 103 119 
					103 120 119 
					115 99 100 
					99 115 110 
					110 121 101 
					121 111 101 
					117 107 104 
					107 117 112 
					104 105 118 
					112 108 97 
					116 105 96 
					105 116 118 
					108 113 98 
					103 106 120 
					106 113 120 
					122 115 114 
					122 110 115 
					121 123 111 
					112 124 108 
					117 125 112 
					108 124 113 
					109 127 126 
					129 128 121 
					128 123 121 
					116 131 130 
					118 130 132 
					133 120 113 
					124 133 113 
					134 119 120 
					133 134 120 
					109 119 127 
					119 135 127 
					136 122 114 
					126 114 109 
					114 126 136 
					123 131 111 
					121 110 129 
					110 122 129 
					134 135 119 
					131 116 111 
					118 116 130 
					125 124 112 
					132 117 118 
					117 132 125 
					137 133 124 
					134 138 135 
					122 140 139 
					122 139 141 
					131 143 142 
					132 145 144 
					130 142 145 
					126 147 146 
					127 148 147 
					144 125 132 
					125 144 149 
					122 136 140 
					136 146 140 
					143 131 123 
					130 131 142 
					141 129 122 
					129 141 150 
					128 129 150 
					123 128 150 
					150 143 123 
					132 130 145 
					124 125 149 
					149 137 124 
					146 136 126 
					127 135 148 
					135 138 148 
					151 134 133 
					137 151 133 
					151 138 134 
					147 126 127 
					150 152 143 
					149 153 137 
					154 144 145 
					155 146 147 
					155 147 148 
					157 156 151 
					139 159 158 
					140 160 159 
					146 155 160 
					142 162 161 
					145 161 154 
					143 152 162 
					153 157 137 
					156 163 138 
					138 151 156 
					164 150 141 
					150 164 152 
					159 139 140 
					160 140 146 
					158 141 139 
					141 158 164 
					165 149 144 
					154 165 144 
					165 153 149 
					162 142 143 
					145 142 161 
					151 137 157 
					163 148 138 
					148 163 155 
					166 164 158 
					164 166 152 
					167 161 162 
					168 154 161 
					169 162 152 
					163 170 155 
					172 171 153 
					161 167 173 
					173 168 161 
					175 174 156 
					172 153 165 
					176 172 165 
					159 160 177 
					177 178 159 
					174 163 156 
					163 174 179 
					163 179 170 
					171 157 153 
					170 160 155 
					160 170 177 
					178 158 159 
					158 178 166 
					166 169 152 
					162 169 167 
					176 165 154 
					168 176 154 
					175 156 157 
					171 175 157 
					180 173 167 
					181 167 169 
					182 179 174 
					184 183 171 
					167 181 180 
					185 184 172 
					183 186 171 
					186 187 175 
					187 174 175 
					174 187 182 
					182 170 179 
					170 182 188 
					189 169 166 
					169 189 181 
					189 166 178 
					177 170 188 
					188 190 177 
					190 178 177 
					178 190 189 
					184 171 172 
					176 168 191 
					191 168 173 
					180 191 173 
					172 176 185 
					176 191 185 
					175 171 186 
					192 189 190 
					189 192 181 
					184 193 183 
					194 180 181 
					180 194 191 
					195 185 191 
					183 196 186 
					181 192 194 
					187 198 197 
					199 193 184 
					197 182 187 
					182 197 200 
					188 182 200 
					200 201 188 
					190 188 201 
					201 192 190 
					193 196 183 
					191 194 195 
					199 184 185 
					195 199 185 
					187 186 198 
					186 196 198 
					202 201 200 
					203 195 194 
					195 203 199 
					203 194 192 
					204 200 197 
					204 197 198 
					207 206 205 
					208 207 192 
					202 207 208 
					203 205 209 
					192 207 203 
					207 205 203 
					202 206 207 
					202 204 206 
					205 206 196 
					193 199 209 
					199 203 209 
					192 201 208 
					201 202 208 
					205 196 193 
					209 205 193 
					200 204 202 
					206 198 196 
					198 206 204 
				</DataArray>
				<DataArray type="Int32" Name="offsets" format="ascii">
					3 6 9 12 15 18 21 24 27 30 33 36 39 42 45 48 51 54 57 60 63 66 69 72 75 78 81 84 87 90 93 96 99 102 105 108 111 114 117 120 123 126 129 132 135 138 141 144 147 150 153 156 159 162 165 168 171 174 177 180 183 186 189 192 195 198 201 204 207 210 213 216 219 222 225 228 231 234 237 240 243 246 249 252 255 258 261 264 267 270 273 276 279 282 285 288 291 294 297 300 303 306 309 312 315 318 321 324 327 330 333 336 339 342 345 348 351 354 357 360 363 366 369 372 375 378 381 384 387 390 393 396 399 402 405 408 411 414 417 420 423 426 429 432 435 438 441 444 447 450 453 456 459 462 465 468 471 474 477 480 483 486 489 492 495 498 501 504 507 510 513 516 519 522 525 528 531 534 537 540 543 546 549 552 555 558 561 564 567 570 573 576 579 582 585 588 591 594 597 600 603 606 609 612 615 618 621 624 627 630 633 636 639 642 645 648 651 654 657 660 663 666 669 672 675 678 681 684 687 690 693 696 699 702 705 708 711 714 717 720 723 726 729 732 735 738 741 744 747 750 753 756 759 762 765 768 771 774 777 780 783 786 789 792 795 798 801 804 807 810 813 816 819 822 825 828 831 834 837 840 843 846 849 852 855 858 861 864 867 870 873 876 879 882 885 888 891 894 897 900 903 906 909 912 915 918 921 924 927 930 933 936 939 942 945 948 951 954 957 960 963 966 969 972 975 978 981 984 987 990 993 996 999 1002 1005 1008 1011 1014 1017 1020 1023 1026 1029 1032 1035 1038 1041 1044 1047 1050 1053 1056 1059 1062 1065 1068 1071 1074 1077 1080 1083 1086 1089 1092 1095 1098 1101 1104 1107 1110 1113 1116 1119 1122 1125 1128 1131 1134 1137 1140 1143 1146 1149 1152 1155 1158 1161 1164 1167 1170 1173 1176 1179 1182 1185 1188 1191 1194 1197 1200 1203 1206 1209 1212 1215 1218 1221 1224 1227 1230 1233 1236 1239 1242 1245 1248 
				</DataArray>
			</Polys>
		</Piece>
	</PolyData>
</VTKFile>
