<?xml version="1.0"?>
<VTKFile type="PolyData" version="0.1" byte_order="LittleEndian" compressor="vtkZLibDataCompressor">
	<PolyData>
		<Piece NumberOfPoints="1997" NumberOfVerts="0" NumberOfLines="0" NumberOfStrips="0" NumberOfPolys="3969">
		<PointData Normals="Normals">
		<DataArray type="Float32" Name="Normals" NumberOfComponents="3" format="ascii">
			 0.932406  0.283036  0.224742
			 0.964385  0.224457  0.139930
			 0.894556  0.416691 -0.161673
			 0.857754  0.457230  0.234945
			 0.868787  0.188791  0.457784
			 0.785633  0.294613  0.544045
			 0.935015  0.034503  0.352925
			 0.998200  0.038547  0.045944
			 0.866911  0.351611 -0.353321
			 0.758966  0.539219 -0.364984
			 0.773869  0.627389  0.086659
			 0.815912  0.406206  0.411441
			 0.718763  0.508091  0.474577
			 0.814800  0.207853  0.541201
			 0.680037  0.374094  0.630559
			 0.805241  0.410246  0.428117
			 0.835800  0.125719  0.534447
			 0.883268 -0.160758  0.440448
			 0.924467 -0.249292  0.288468
			 0.917918  0.101632 -0.383534
			 0.981010 -0.176273 -0.080915
			 0.605129  0.451377 -0.655803
			 0.728587  0.278849 -0.625623
			 0.592747  0.636905 -0.492953
			 0.569220  0.535218 -0.624123
			 0.679282  0.563337 -0.470348
			 0.650674  0.703721 -0.285308
			 0.734222  0.608637  0.300797
			 0.733782  0.632351  0.248387
			 0.655601  0.614466  0.438884
			 0.668998  0.563444  0.484740
			 0.730377  0.519465  0.443515
			 0.893066  0.383878  0.234672
			 0.939206  0.073133  0.335475
			 0.855247 -0.246958  0.455592
			 0.853849 -0.391087  0.343500
			 0.877422 -0.446807  0.174627
			 0.882389  0.016842 -0.470219
			 0.913514 -0.333186 -0.233408
			 0.536677  0.471802 -0.699557
			 0.656249  0.236953 -0.716373
			 0.560077  0.552142 -0.617619
			 0.566076  0.514232 -0.644301
			 0.546000  0.627860 -0.554685
			 0.675762  0.723467 -0.141214
			 0.701127  0.663620  0.260825
			 0.726353  0.488504  0.483503
			 0.824638  0.473324  0.309737
			 0.761117  0.563569  0.321077
			 0.861847  0.468931  0.193191
			 0.978291  0.184415  0.094538
			 0.630578  0.517177  0.578705
			 0.576455  0.384858  0.720822
			 0.574986  0.354951  0.737157
			 0.490573  0.314477  0.812676
			 0.663469  0.503519  0.553423
			 0.986827 -0.141513  0.078395
			 0.891358 -0.302559  0.337548
			 0.780417 -0.491980  0.385883
			 0.786154 -0.577263  0.220747
			 0.815102 -0.578826 -0.023883
			 0.836623 -0.121663 -0.534098
			 0.806348 -0.432786 -0.403112
			 0.426238  0.457692 -0.780281
			 0.457817  0.601801 -0.654399
			 0.713943  0.079225 -0.695707
			 0.542808  0.546916 -0.637372
			 0.473188  0.547091 -0.690496
			 0.437714  0.527719 -0.727956
			 0.484441  0.663007 -0.570736
			 0.647934  0.723646 -0.237736
			 0.731315  0.618541  0.287376
			 0.659435  0.516790  0.545960
			 0.886151  0.372837  0.275189
			 0.748964  0.211128  0.628074
			 0.949149  0.165798  0.267631
			 0.991388 -0.126132  0.035227
			 0.955012 -0.287823  0.071487
			 0.462858  0.426838  0.776899
			 0.516986  0.317779  0.794822
			 0.461631  0.177772  0.869077
			 0.486920  0.182811  0.854101
			 0.515368  0.122498  0.848169
			 0.413413  0.162648  0.895899
			 0.424089  0.446401  0.787956
			 0.890465 -0.430989  0.146016
			 0.755914 -0.559105  0.340581
			 0.676779 -0.687122  0.264262
			 0.726851 -0.686507  0.019906
			 0.717779 -0.659614 -0.222940
			 0.738519 -0.232898 -0.632731
			 0.695267 -0.471880 -0.542156
			 0.417216  0.697001 -0.583198
			 0.318372  0.671450 -0.669174
			 0.290341  0.853298 -0.433111
			 0.598099  0.146531 -0.787913
			 0.383425  0.436394 -0.813969
			 0.331308  0.582812 -0.742001
			 0.383317  0.542609 -0.747425
			 0.346988  0.575212 -0.740763
			 0.405073  0.577597 -0.708729
			 0.435471  0.603498 -0.667948
			 0.615829  0.703137 -0.355462
			 0.721430  0.667414  0.184654
			 0.704313  0.525806  0.476939
			 0.538510  0.499286  0.678764
			 0.941731  0.043360  0.333562
			 0.775438 -0.038201  0.630267
			 0.847072 -0.114399  0.519020
			 0.578299  0.098577  0.809848
			 0.977279 -0.201654 -0.065277
			 0.938834 -0.340677 -0.050296
			 0.845241 -0.529604  0.071322
			 0.269935  0.354576  0.895216
			 0.344175  0.266293  0.900351
			 0.356134  0.117018  0.927079
			 0.363438  0.203085  0.909214
			 0.575082 -0.006924  0.818067
			 0.493708  0.155391  0.855632
			 0.607289  0.011617  0.794396
			 0.672394  0.018285  0.739968
			 0.528301  0.102044  0.842903
			 0.370835  0.108032  0.922394
			 0.265180  0.335834  0.903823
			 0.332448  0.377113  0.864444
			 0.672259 -0.692531  0.261663
			 0.596259 -0.739672  0.312026
			 0.591502 -0.804395  0.055450
			 0.622802 -0.764679 -0.165479
			 0.620856 -0.689446 -0.373098
			 0.598659  0.030300 -0.800431
			 0.640822 -0.256006 -0.723746
			 0.591418 -0.409808 -0.694465
			 0.343457  0.588385 -0.732011
			 0.321095  0.619004 -0.716751
			 0.482665  0.318619 -0.815792
			 0.410798  0.556290 -0.722348
			 0.516580  0.346618 -0.782944
			 0.453817  0.506582 -0.733093
			 0.423332  0.547291 -0.721985
			 0.459303  0.552525 -0.695527
			 0.310742  0.566589 -0.763162
			 0.355886  0.570917 -0.739864
			 0.515329  0.584701 -0.626547
			 0.697421  0.637664 -0.327092
			 0.790725  0.600925  0.116801
			 0.785663  0.431838  0.443001
			 0.670786  0.457074  0.584064
			 0.405704  0.449455  0.795861
			 0.965125 -0.214229  0.150463
			 0.947494 -0.208010  0.242873
			 0.939464 -0.270316  0.210561
			 0.881606 -0.420963 -0.213449
			 0.934259 -0.340640 -0.105475
			 0.805010 -0.590986 -0.051904
			 0.601904 -0.780084  0.170823
			 0.216228  0.145854  0.965387
			 0.108224  0.257004  0.960332
			 0.300749  0.115862  0.946639
			 0.341799  0.063564  0.937621
			 0.370058  0.148390  0.917081
			 0.330054 -0.018756  0.943776
			 0.844892 -0.133226  0.518082
			 0.769125 -0.220718  0.599775
			 0.597869 -0.024810  0.801210
			 0.785170 -0.174597  0.594158
			 0.336818  0.022984  0.941289
			 0.337252  0.042409  0.940459
			 0.058040  0.325272  0.943838
			 0.176076  0.380575  0.907832
			 0.224121  0.424543  0.877230
			 0.419064 -0.849895  0.319476
			 0.496779 -0.840120  0.217734
			 0.440628 -0.894819 -0.071735
			 0.377176 -0.920594  0.101216
			 0.499631 -0.818214 -0.284419
			 0.519672 -0.647774 -0.557073
			 0.537190  0.053521 -0.841761
			 0.516934  0.278628 -0.809411
			 0.545082 -0.204438 -0.813075
			 0.446627 -0.124784 -0.885976
			 0.457657 -0.342367 -0.820570
			 0.326084  0.660876 -0.675953
			 0.434412  0.525804 -0.731312
			 0.316236  0.554567 -0.769708
			 0.291596  0.729192 -0.619073
			 0.519494  0.240547 -0.819917
			 0.498204  0.418915 -0.759146
			 0.642778  0.497419 -0.582590
			 0.264337  0.734081 -0.625501
			 0.239241  0.755063 -0.610445
			 0.016055  0.702241 -0.711758
			 0.172033  0.564972 -0.806977
			 0.333097  0.500653 -0.798995
			 0.482404  0.505018 -0.715711
			 0.658730  0.564305 -0.497629
			 0.785635  0.614646 -0.070630
			 0.835959  0.453377  0.309228
			 0.759864  0.398093  0.513934
			 0.548357  0.453514  0.702587
			 0.313698  0.425446  0.848876
			 0.920829 -0.368457  0.127720
			 0.880338 -0.437669 -0.182895
			 0.899415 -0.415937 -0.134347
			 0.736669 -0.638822 -0.221869
			 0.797299 -0.497601 -0.341625
			 0.625518 -0.780196 -0.004665
			 0.262883 -0.890525  0.371292
			 0.369546 -0.912506  0.175409
			-0.039018 -0.034384  0.998647
			-0.118023  0.076189  0.990084
			 0.157206 -0.101078  0.982380
			 0.507169  0.280121  0.815053
			 0.046210 -0.026451  0.998582
			 0.392847  0.008074  0.919568
			 0.322087 -0.059878  0.944815
			 0.309098 -0.135370  0.941346
			 0.210841 -0.169281  0.962751
			 0.213757 -0.181705  0.959839
			 0.398869 -0.167041  0.901666
			 0.878733 -0.458051  0.134228
			 0.691078 -0.276807  0.667674
			 0.870780 -0.449396  0.199463
			 0.339560 -0.081183  0.937074
			-0.143857  0.470022  0.870852
			-0.233242  0.245365  0.940954
			-0.052453  0.466921  0.882742
			 0.098306  0.456543  0.884254
			 0.256835 -0.928722  0.267416
			 0.287479 -0.940538 -0.180953
			 0.212515 -0.976290 -0.041178
			 0.161017 -0.973343  0.163328
			 0.315378 -0.848189 -0.425573
			 0.329890 -0.602112 -0.727071
			 0.431204  0.016877 -0.902096
			 0.365187  0.195663 -0.910140
			 0.522292  0.216497 -0.824827
			 0.429642  0.235139 -0.871847
			 0.357580 -0.071663 -0.931129
			 0.305273 -0.287303 -0.907891
			 0.239313  0.309296 -0.920362
			 0.177719  0.415759 -0.891942
			 0.047981  0.661870 -0.748081
			 0.013879  0.404165 -0.914581
			 0.196705  0.252352 -0.947431
			 0.402940  0.085324 -0.911241
			-0.208360  0.722781 -0.658918
			-0.315632  0.694297 -0.646783
			-0.181755  0.652500 -0.735669
			-0.049890  0.472102 -0.880131
			 0.204898  0.468826 -0.859197
			 0.270064  0.477942 -0.835845
			 0.394856  0.427420 -0.813266
			 0.607810  0.426436 -0.669865
			 0.771491  0.530218 -0.351669
			 0.851204  0.522725  0.047004
			 0.828060  0.424419  0.366312
			 0.757437  0.372133  0.536476
			 0.548602  0.406231  0.730761
			 0.258437  0.360177  0.896372
			 0.789425 -0.559454 -0.252625
			 0.694368 -0.606132 -0.387888
			 0.756144 -0.571556 -0.318700
			 0.478053 -0.866741 -0.142216
			 0.659277 -0.634752 -0.403042
			 0.138756 -0.929927  0.340561
			 0.088652 -0.923002  0.374443
			-0.167027 -0.865975  0.471370
			-0.240681 -0.185319  0.952748
			-0.318294 -0.148147  0.936345
			-0.176452 -0.211826  0.961246
			-0.475089  0.075660  0.876679
			 0.171106 -0.187112  0.967322
			 0.249963 -0.163342  0.954378
			 0.001594 -0.254961  0.966950
			 0.297962 -0.121126  0.946862
			 0.312098 -0.152253  0.937771
			 0.290735 -0.192172  0.937306
			 0.298304 -0.191838  0.934994
			 0.186359 -0.182573  0.965369
			 0.163354 -0.235881  0.957954
			 0.297699 -0.369172  0.880391
			 0.505952 -0.419256  0.753815
			 0.775858 -0.554376 -0.301183
			 0.703945 -0.621387  0.344005
			 0.756257 -0.649774 -0.076617
			-0.446593  0.461225  0.766698
			-0.302315  0.531268  0.791429
			-0.517745  0.556763  0.649581
			-0.632600  0.212864  0.744652
			-0.427595  0.500244  0.752940
			-0.204420  0.440405  0.874217
			-0.091649  0.476148  0.874576
			 0.105911 -0.916345 -0.386127
			 0.021865 -0.969545 -0.243937
			-0.020105 -0.999086  0.037713
			 0.015171 -0.964180  0.264816
			 0.111164 -0.790047 -0.602883
			 0.155364 -0.467390 -0.870292
			 0.227024  0.075040 -0.970994
			 0.341860  0.059968 -0.937836
			 0.302478  0.198462 -0.932266
			 0.181732 -0.127245 -0.975081
			-0.074070  0.260958 -0.962504
			-0.093277  0.231961 -0.968243
			-0.201291  0.491799 -0.847122
			-0.266920  0.253935 -0.929661
			 0.075811 -0.026287 -0.996776
			 0.058287  0.251686 -0.966052
			 0.210582 -0.416179 -0.884563
			-0.446819  0.674886 -0.587266
			-0.569428  0.661762 -0.487671
			-0.548132  0.594464 -0.588357
			-0.438011  0.451057 -0.777621
			-0.239692  0.325483 -0.914663
			 0.093064  0.443117 -0.891620
			 0.267846  0.404788 -0.874303
			 0.449238  0.363583 -0.816084
			 0.675936  0.440739 -0.590644
			 0.841619  0.494815 -0.216415
			 0.870529  0.443392  0.213498
			 0.803147  0.357294  0.476755
			 0.676212  0.355235  0.645404
			 0.434914  0.346288  0.831225
			 0.270558  0.309900  0.911461
			 0.038230  0.326375  0.944467
			 0.611200 -0.651572 -0.449321
			 0.664867 -0.545009 -0.510801
			 0.508359 -0.713474 -0.482210
			 0.407174 -0.786145 -0.464958
			-0.186585 -0.955231 -0.229608
			-0.104377 -0.932586  0.345526
			-0.644427 -0.667227  0.373526
			-0.356940 -0.642290  0.678276
			-0.651836 -0.684672  0.326089
			-0.298353 -0.168152  0.939527
			-0.241361 -0.211021  0.947214
			-0.524981 -0.287412  0.801118
			-0.659749 -0.194473  0.725887
			-0.751224  0.173087  0.636949
			-0.286765 -0.375775  0.881226
			-0.361650 -0.371478  0.855110
			-0.834022  0.264482  0.484208
			 0.154580 -0.198537  0.967827
			-0.097554 -0.351577  0.931062
			 0.063370 -0.326859  0.942946
			 0.278398 -0.293306  0.914585
			 0.268089 -0.239733  0.933090
			 0.248974 -0.234866  0.939601
			 0.260383 -0.268432  0.927440
			 0.322331 -0.488641  0.810761
			 0.551875 -0.683666  0.477529
			 0.430585 -0.695321  0.575435
			 0.616115 -0.577176 -0.535975
			 0.647446 -0.695682 -0.311190
			 0.631305 -0.775535 -0.000187
			-0.769606  0.401056  0.496852
			-0.770142  0.486775  0.412227
			-0.700082  0.481426  0.527366
			-0.377017  0.488899  0.786662
			-0.609000  0.410392  0.678747
			-0.292899  0.392171  0.872016
			-0.124434 -0.829699 -0.544165
			-0.171141 -0.901338 -0.397871
			-0.234394 -0.961018 -0.146644
			-0.204487 -0.968228  0.143943
			-0.058219 -0.630099 -0.774329
			 0.012082 -0.246999 -0.968940
			 0.084563  0.038969 -0.995656
			 0.308875 -0.102990 -0.945510
			 0.009410  0.159856 -0.987096
			-0.165815  0.265340 -0.949789
			-0.155094  0.325396 -0.932772
			-0.078917  0.311625 -0.946923
			-0.492540  0.410517 -0.767385
			-0.616942  0.236421 -0.750659
			-0.352306  0.263496 -0.898026
			-0.055965  0.346347 -0.936435
			-0.644794  0.618761 -0.448749
			-0.715220  0.675015 -0.181149
			-0.806752  0.491676 -0.327728
			-0.822819  0.291013 -0.488139
			-0.684880  0.216551 -0.695733
			-0.377009  0.192285 -0.906030
			 0.050805  0.343250 -0.937869
			 0.246367  0.332656 -0.910298
			 0.343009  0.326467 -0.880775
			 0.505382  0.387249 -0.771121
			 0.736811  0.444218 -0.509687
			 0.875367  0.471129 -0.108494
			 0.884300  0.415735  0.212552
			 0.837651  0.341208  0.426519
			 0.713800  0.341143  0.611646
			 0.529725  0.293794  0.795661
			 0.243802  0.264979  0.932924
			-0.066865  0.205552  0.976359
			 0.375454 -0.726236 -0.575860
			 0.491890 -0.567345 -0.660427
			 0.139924 -0.800393 -0.582918
			-0.697265 -0.667088 -0.262328
			-0.499098 -0.647493 -0.575894
			-0.326798 -0.908696  0.259758
			-0.639801 -0.739993 -0.207522
			-0.811904 -0.583784  0.002832
			-0.602641 -0.464950  0.648572
			-0.655882 -0.742215 -0.137607
			-0.456715 -0.427029  0.780421
			-0.510550 -0.682308  0.523254
			-0.273356 -0.429208  0.860846
			-0.403648 -0.425396  0.810004
			-0.553248 -0.295904  0.778690
			-0.673868 -0.162343  0.720796
			-0.796147  0.028586  0.604427
			-0.854865  0.485104  0.184066
			-0.848059  0.428977  0.311087
			-0.317514 -0.333723  0.887589
			-0.505892 -0.204971  0.837891
			-0.915163  0.338188  0.219331
			-0.164236 -0.384076  0.908577
			 0.047306 -0.392667  0.918463
			 0.077578 -0.387000  0.918810
			 0.344578 -0.296983  0.890543
			 0.238504 -0.318332  0.917486
			 0.254660 -0.434437  0.863952
			 0.438630 -0.688230  0.577879
			 0.527527 -0.822444  0.212841
			 0.516169 -0.848336  0.117877
			 0.427425 -0.514767 -0.743184
			 0.469294 -0.657429 -0.589534
			 0.505028 -0.828519 -0.241875
			-0.917316  0.342386  0.203232
			-0.901234  0.313354  0.299310
			-0.873844  0.234519  0.425908
			-0.495281  0.369571  0.786203
			-0.762250  0.233195  0.603817
			-0.383190  0.158420  0.909983
			-0.334321 -0.673050 -0.659722
			-0.396905 -0.812348 -0.427266
			-0.440883 -0.862348 -0.248954
			-0.431539 -0.902011 -0.012289
			-0.194433 -0.364392 -0.910722
			-0.087767 -0.037633 -0.995430
			-0.165909  0.151471 -0.974439
			-0.113992  0.325758 -0.938556
			-0.215563  0.337077 -0.916467
			-0.194090  0.337230 -0.921198
			-0.808031  0.353265 -0.471476
			-0.902728  0.211058 -0.374883
			-0.759417  0.208811 -0.616185
			-0.426433  0.482178 -0.765284
			-0.234760  0.318893 -0.918257
			-0.412689  0.391595 -0.822400
			-0.824190  0.532574 -0.192550
			-0.858456  0.512057  0.029190
			-0.822031  0.561498  0.094790
			-0.970476  0.230574 -0.070790
			-0.989446  0.117187 -0.085230
			-0.968983  0.036319 -0.244443
			-0.804575  0.031521 -0.593014
			-0.495807  0.065390 -0.865968
			-0.040613  0.252807 -0.966664
			 0.084497  0.289829 -0.953341
			 0.333015  0.332865 -0.882215
			 0.584093  0.395492 -0.708817
			 0.798442  0.482482 -0.360142
			 0.881627  0.469009  0.052568
			 0.849578  0.396562  0.347787
			 0.772173  0.325939  0.545447
			 0.630227  0.312638  0.710684
			 0.415638  0.223201  0.881718
			 0.145880  0.136495  0.979841
			-0.181563  0.075848  0.980450
			 0.027546 -0.736508 -0.675868
			 0.224099 -0.576498 -0.785767
			-0.414684 -0.596077 -0.687553
			-0.653970 -0.494645 -0.572407
			-0.521840 -0.842174  0.135745
			-0.691372 -0.569905 -0.444087
			-0.527787 -0.764187 -0.370755
			-0.960384 -0.263636  0.090321
			-0.689820 -0.442637  0.572906
			-0.792808 -0.428994 -0.432920
			-0.856113 -0.456687 -0.241882
			-0.478631 -0.464279  0.745223
			-0.426112 -0.335298  0.840240
			-0.427482 -0.323977  0.843977
			-0.407767 -0.423862  0.808744
			-0.416265 -0.380378  0.825855
			-0.506348 -0.645635 -0.571636
			-0.539065 -0.531483  0.653402
			-0.629227 -0.648779  0.427970
			-0.457297 -0.420117  0.783825
			-0.681057 -0.111292  0.723723
			-0.834704  0.153581  0.528849
			-0.843796  0.070185  0.532055
			-0.926334  0.368556 -0.077923
			-0.798066  0.600939 -0.044304
			-0.851478  0.524251 -0.012081
			-0.957192  0.278101  0.080266
			-0.539864 -0.290678  0.789971
			-0.428353 -0.400454  0.810031
			-0.786610 -0.295272  0.542272
			-0.156315 -0.412520  0.897437
			-0.027325 -0.401515  0.915445
			-0.061654 -0.434281  0.898665
			-0.024913 -0.383707  0.923119
			 0.093784 -0.505208  0.857887
			 0.217670 -0.737015  0.639866
			 0.372519 -0.907815  0.192618
			 0.395708 -0.900714 -0.179248
			 0.389461 -0.911907 -0.129404
			 0.279376 -0.421945 -0.862503
			 0.320122 -0.829671 -0.457350
			 0.293505 -0.534562 -0.792527
			-0.990786  0.065638 -0.118469
			-0.994208  0.094328 -0.051497
			-0.992540  0.032312 -0.117556
			-0.973160  0.106586  0.203960
			-0.649706  0.202672  0.732671
			-0.957195  0.139245  0.253748
			-0.736925  0.127230  0.663894
			-0.466247  0.038245  0.883828
			-0.489248 -0.424465 -0.761883
			-0.609040 -0.654586 -0.447870
			-0.617683 -0.725765 -0.302874
			-0.658741 -0.738597 -0.143296
			-0.291813 -0.107315 -0.950436
			-0.384791  0.129767 -0.913836
			-0.947424  0.292537 -0.129654
			-0.937309  0.183492 -0.296282
			-0.974990  0.194476 -0.107578
			-0.925747  0.040643 -0.375952
			-0.820287  0.225067 -0.525807
			-0.757666  0.050307 -0.650701
			-0.817132  0.529209  0.228545
			-0.814004  0.556393  0.166806
			-0.940972  0.338186  0.014218
			-0.718992  0.550971  0.423653
			-0.909161  0.182238  0.374453
			-0.987217  0.063792  0.146058
			-0.990911 -0.033237  0.130347
			-0.984807 -0.166807  0.048275
			-0.970278 -0.098051 -0.221241
			-0.843726 -0.121093 -0.522938
			-0.777525 -0.092784 -0.621970
			-0.374112  0.089396 -0.923065
			-0.257947  0.163998 -0.952139
			 0.174300  0.319118 -0.931549
			 0.469204  0.345108 -0.812864
			 0.299316  0.314770 -0.900738
			 0.712067  0.432653 -0.552966
			 0.875459  0.463137 -0.138117
			 0.868922  0.433074  0.239628
			 0.799599  0.348476  0.489087
			 0.687660  0.258924  0.678294
			 0.493793  0.199958  0.846277
			 0.221453  0.113391  0.968556
			-0.082295  0.029906  0.996159
			-0.427183 -0.027561  0.903745
			-0.084176 -0.434099 -0.896924
			-0.299372 -0.183703 -0.936285
			-0.400454 -0.422166 -0.813273
			-0.730692 -0.682174  0.027002
			-0.478530 -0.602396 -0.638848
			-0.655399 -0.394056 -0.644338
			-0.865991 -0.258198 -0.428245
			-0.956079 -0.183066 -0.228908
			-0.766624 -0.072871  0.637948
			-0.984147 -0.168644 -0.054894
			-0.963706 -0.138097  0.228472
			-0.524984 -0.359752  0.771343
			-0.754682 -0.380002 -0.534840
			-0.502358 -0.411744  0.760331
			-0.416940 -0.341644  0.842283
			-0.449979 -0.372737  0.811533
			-0.624427 -0.537173  0.567041
			-0.757670 -0.496723  0.423323
			-0.698903 -0.432735  0.569452
			-0.948768 -0.123601  0.290797
			-0.980562  0.161675  0.111169
			-0.856885  0.197140 -0.476323
			-0.743786  0.569256 -0.350328
			-0.783904  0.563665 -0.260339
			-0.927930  0.325777 -0.181151
			-0.949354  0.205052 -0.238075
			-0.660968 -0.497653  0.561661
			-0.745288 -0.461676  0.481043
			-0.669031 -0.582946  0.461055
			-0.427057 -0.481328  0.765471
			-0.955190 -0.294189  0.032630
			-0.892556 -0.442046  0.089099
			-0.186802 -0.627253  0.756082
			 0.023332 -0.393750  0.918921
			-0.171223 -0.527511  0.832114
			-0.147478 -0.565831  0.811225
			 0.021380 -0.745931  0.665679
			 0.122830 -0.927778  0.352336
			 0.193909 -0.979882 -0.047220
			 0.170907 -0.924804 -0.339894
			 0.251228 -0.884670 -0.392739
			 0.165307 -0.151528 -0.974532
			 0.145880 -0.710830 -0.688069
			 0.151644 -0.366351 -0.918037
			-0.843144 -0.013964 -0.537506
			-0.814411 -0.065440 -0.576587
			-0.757748 -0.137982 -0.637793
			-0.938007  0.018418 -0.346126
			-0.919678 -0.055911 -0.388672
			-0.985073  0.111411  0.131224
			-0.736607  0.002340  0.676317
			-0.975955  0.046137  0.213034
			-0.596166 -0.153738 -0.788005
			-0.729445 -0.430780 -0.531356
			-0.787823 -0.518199 -0.332873
			-0.844268 -0.504708 -0.180224
			-0.969009  0.239526 -0.060407
			-0.938961  0.098288 -0.329685
			-0.843354  0.295032 -0.449122
			-0.979262  0.141467 -0.145028
			-0.984304  0.038616 -0.172203
			-0.981138  0.176838 -0.078077
			-0.818449  0.112823 -0.563394
			-0.800041 -0.183308 -0.571255
			-0.631700  0.702775  0.327204
			-0.682986  0.472022  0.557428
			-0.935488  0.124940  0.330534
			-0.972160  0.223004 -0.071927
			-0.669862  0.620384  0.407932
			-0.680860  0.554068  0.478998
			-0.982895 -0.076063  0.167728
			-0.984243  0.130581  0.119221
			-0.775748  0.391607  0.494832
			-0.844892  0.470352  0.254807
			-0.984104 -0.136514  0.113592
			-0.978756 -0.189311  0.078723
			-0.978327 -0.200490  0.051772
			-0.963003 -0.243462 -0.115551
			-0.943547 -0.201822 -0.262654
			-0.946000 -0.215690 -0.241995
			-0.732696 -0.105299 -0.672361
			-0.621574 -0.058640 -0.781157
			-0.081545  0.218478 -0.972429
			 0.211566  0.278118 -0.936958
			 0.378512  0.291415 -0.878525
			 0.614430  0.406443 -0.676225
			 0.822830  0.453039 -0.343085
			 0.902077  0.426106  0.068485
			 0.841886  0.395738  0.366906
			 0.718284  0.354907  0.598422
			 0.563616  0.271772  0.780049
			 0.331807  0.125904  0.934908
			 0.047488  0.042376  0.997973
			-0.280391 -0.032452  0.959337
			-0.643980 -0.082270  0.760606
			 0.131938  0.091008 -0.987071
			 0.036944  0.062478 -0.997362
			-0.141409 -0.179325 -0.973574
			-0.877504 -0.479393 -0.012980
			-0.481693 -0.110751 -0.869314
			-0.796930 -0.066911 -0.600354
			-0.889497 -0.141105 -0.434608
			-0.999255  0.035693  0.014641
			-0.876100  0.004980 -0.482104
			-0.949802  0.019638 -0.312234
			-0.881898 -0.085100  0.463695
			-0.749352  0.024505  0.661718
			-0.703055 -0.113195  0.702069
			-0.949197  0.281570  0.140514
			-0.890480  0.213835  0.401647
			-0.753980 -0.273566  0.597224
			-0.697663 -0.325738  0.638091
			-0.693238 -0.302385  0.654205
			-0.732145 -0.397150  0.553386
			-0.789380 -0.384419  0.478644
			-0.969750 -0.242343 -0.029223
			-0.707200 -0.439308  0.553965
			-0.991477  0.021222 -0.128542
			-0.809172  0.081396 -0.581907
			-0.678579  0.349823 -0.645875
			-0.823331  0.174227 -0.540158
			-0.874967  0.118076 -0.469565
			-0.670038  0.465923 -0.577897
			-0.552866  0.582275 -0.596066
			-0.594594  0.469110 -0.652989
			-0.842551  0.364458 -0.396583
			-0.760212  0.242976 -0.602529
			-0.906891  0.141097 -0.397039
			-0.803978 -0.566718  0.180138
			-0.495211 -0.672231  0.550337
			-0.822815 -0.567791  0.024251
			-0.719543 -0.662233  0.209059
			-0.936438 -0.162989 -0.310673
			-0.871216 -0.395354 -0.290994
			-0.829720 -0.526931 -0.184144
			-0.040403 -0.861022  0.506960
			-0.129303 -0.825974  0.548678
			-0.204544 -0.634248  0.745581
			-0.199635 -0.641419  0.740761
			-0.072396 -0.850175  0.521500
			-0.028206 -0.996235  0.081977
			-0.016518 -0.975182 -0.220788
			-0.036982 -0.872196 -0.487756
			 0.091399 -0.781479 -0.617200
			 0.004402 -0.569732 -0.821819
			 0.079583 -0.230493 -0.969814
			-0.663314 -0.136011 -0.735878
			-0.835707 -0.175480 -0.520385
			-0.784934 -0.157125 -0.599324
			-0.790841 -0.292004 -0.537870
			-0.943771 -0.060793 -0.324961
			-0.901719 -0.075939  0.425600
			-0.991170 -0.124577 -0.045420
			-0.954344  0.008412 -0.298590
			-0.899095 -0.239714 -0.366287
			-0.960093 -0.233855 -0.153404
			-0.996113  0.032854 -0.081727
			-0.948263 -0.057204  0.312291
			-0.832820 -0.141605  0.535126
			-0.461575  0.867476  0.185562
			-0.774324 -0.241782  0.584776
			-0.987333 -0.112039 -0.112344
			-0.977890 -0.124626 -0.167927
			-0.969105  0.207959 -0.132622
			-0.943789 -0.330048  0.018193
			-0.966681 -0.254838 -0.024172
			-0.972057 -0.134531 -0.192371
			-0.960322 -0.278286  0.018406
			-0.953593 -0.300440  0.019875
			-0.917763 -0.293447 -0.267583
			-0.871697 -0.286584 -0.397509
			-0.449575  0.005978 -0.893223
			 0.036788  0.217619 -0.975340
			 0.234720  0.250283 -0.939290
			 0.382044  0.302210 -0.873334
			 0.598069  0.374674 -0.708472
			 0.771754  0.471095 -0.427160
			 0.877287  0.476560 -0.057085
			 0.872833  0.401124  0.277960
			 0.774461  0.345300  0.530074
			 0.640753  0.293910  0.709262
			 0.425040  0.158091  0.891262
			 0.101296  0.032253  0.994333
			-0.242527 -0.021992  0.969895
			-0.553205 -0.079652  0.829229
			-0.858431 -0.163596  0.486140
			-0.019657 -0.091011 -0.995656
			-0.154793  0.047849 -0.986788
			-0.130353  0.286152 -0.949276
			-0.741748  0.017064 -0.670462
			-0.438375  0.309605 -0.843784
			-0.769224  0.162675 -0.617925
			-0.847160  0.025128 -0.530743
			-0.501879  0.360618 -0.786176
			-0.935399  0.079878 -0.344453
			-0.872255 -0.096443 -0.479448
			-0.574153  0.537770 -0.617375
			-0.634153  0.386240 -0.669827
			-0.569207  0.489065 -0.660922
			-0.485567  0.541962 -0.685932
			-0.563670  0.329917 -0.757252
			-0.713186  0.116406 -0.691242
			-0.738375 -0.068615 -0.670890
			-0.255910 -0.910991  0.323427
			-0.769676 -0.536792 -0.345619
			-0.750949 -0.620240 -0.226665
			-0.477660 -0.875752 -0.069998
			-0.758288 -0.295989 -0.580853
			-0.780591 -0.474711 -0.406605
			-0.307875 -0.788322  0.532693
			-0.304969 -0.755348  0.580037
			-0.431982 -0.758242  0.488324
			-0.206262 -0.924609  0.320240
			-0.255299 -0.965467 -0.051918
			-0.208694 -0.909110 -0.360509
			-0.238216 -0.744707 -0.623430
			-0.063573 -0.628502 -0.775205
			-0.188854 -0.446640 -0.874555
			-0.915154 -0.230781 -0.330505
			-0.897811 -0.341012 -0.278652
			-0.891220 -0.232996 -0.389153
			-0.961799 -0.271341  0.036284
			-0.921085 -0.357605 -0.154016
			-0.922885 -0.158315 -0.351026
			-0.953432 -0.297025 -0.052377
			-0.946254 -0.299018 -0.123252
			-0.925920 -0.364785 -0.098007
			-0.920779 -0.385014 -0.062690
			-0.868343 -0.271863 -0.414815
			-0.579837 -0.066737 -0.811994
			-0.093382  0.148581 -0.984481
			 0.189197  0.228326 -0.955024
			 0.309377  0.278260 -0.909317
			 0.566311  0.372439 -0.735243
			 0.800628  0.450297 -0.395256
			 0.875595  0.474100 -0.092531
			 0.872316  0.436910  0.219487
			 0.803033  0.362602  0.472924
			 0.674674  0.297513  0.675500
			 0.477147  0.196559  0.856560
			 0.116083  0.049663  0.991997
			-0.237839 -0.050113  0.970011
			-0.609998 -0.154675  0.777160
			-0.871371 -0.250600  0.421796
			-0.345188 -0.248441 -0.905054
			-0.430169  0.003596 -0.902741
			-0.487751  0.231320 -0.841778
			-0.724804  0.285810 -0.626875
			-0.628508  0.366924 -0.685817
			-0.805858 -0.178089 -0.564692
			-0.823288 -0.137803 -0.550642
			-0.719811 -0.118743 -0.683939
			-0.361251 -0.897515  0.252911
			-0.764237 -0.543610 -0.347030
			-0.765305 -0.576122 -0.287040
			-0.641579 -0.744771 -0.183559
			-0.501312 -0.855828 -0.127458
			-0.423890 -0.905500  0.019664
			-0.713676 -0.384977 -0.585200
			-0.814346 -0.475985 -0.332082
			-0.373196 -0.904794  0.205119
			-0.430092 -0.881373 -0.195457
			-0.535058 -0.842352  0.064471
			-0.381942 -0.748540 -0.542041
			-0.260000 -0.470439 -0.843260
			-0.443552 -0.528864 -0.723578
			-0.947320 -0.317398  0.042929
			-0.912899 -0.398243 -0.089542
			-0.936042 -0.344737 -0.070574
			-0.908970 -0.297965 -0.291532
			-0.727152 -0.124710 -0.675054
			-0.243807  0.038257 -0.969069
			 0.183445  0.119929 -0.975687
			 0.369588  0.251047 -0.894640
			 0.633673  0.374413 -0.676959
			 0.788521  0.460577 -0.407557
			 0.879227  0.474882 -0.038043
			 0.837792  0.420735  0.347976
			 0.714844  0.356851  0.601378
			 0.552566  0.306304  0.775144
			 0.226331  0.176984  0.957836
			-0.166951 -0.013643  0.985871
			-0.500288 -0.113362  0.858406
			-0.867488 -0.262925  0.422297
			-0.478899 -0.236260 -0.845480
			-0.631447  0.001971 -0.775417
			-0.672972 -0.306512 -0.673171
			-0.699765 -0.667940 -0.253347
			-0.570621 -0.560210 -0.600463
			-0.957051 -0.289620  0.013202
			-0.952423 -0.298772  0.060211
			-0.912621 -0.356187 -0.200631
			-0.826379 -0.257538 -0.500772
			-0.621722 -0.111338 -0.775284
			 0.069406  0.128786 -0.989240
			-0.257469  0.059601 -0.964447
			 0.214203  0.168804 -0.962093
			 0.273437  0.224977 -0.935210
			 0.316199  0.288488 -0.903766
			 0.458670  0.332771 -0.823945
			 0.773975  0.440157 -0.455219
			 0.707741  0.434445 -0.557100
			 0.833729  0.495523 -0.243625
			 0.904994  0.421601  0.056907
			 0.826789  0.285680  0.484569
			 0.833652  0.175254  0.523746
			 0.649594  0.166101  0.741915
			 0.666057  0.305639  0.680407
			 0.406684  0.323975  0.854194
			-0.091220  0.023018  0.995565
			 0.235385  0.169686  0.956975
			-0.283558 -0.092969  0.954438