<?xml version="1.0"?>
<VTKFile type="PolyData" version="0.1" byte_order="LittleEndian" compressor="vtkZLibDataCompressor">
	<PolyData>
		<Piece NumberOfPoints="1997" NumberOfVerts="0" NumberOfLines="0" NumberOfStrips="0" NumberOfPolys="3969">
		<PointData Normals="Normals">
		<DataArray type="Float32" Name="Normals" NumberOfComponents="3" format="ascii">
			 0.932408  0.283034  0.224737
			 0.964384  0.224464  0.139929
			 0.894557  0.416691 -0.161667
			 0.857753  0.457233  0.234941
			 0.868790  0.188794  0.457778
			 0.785631  0.294614  0.544046
			 0.935016  0.034504  0.352924
			 0.998200  0.038547  0.045944
			 0.866912  0.351614 -0.353313
			 0.758964  0.539220 -0.364988
			 0.773869  0.627390  0.086651
			 0.815907  0.406214  0.411443
			 0.718768  0.508084  0.474577
			 0.814803  0.207852  0.541197
			 0.680041  0.374091  0.630555
			 0.805240  0.410245  0.428121
			 0.835798  0.125713  0.534451
			 0.883271 -0.160755  0.440443
			 0.924470 -0.249290  0.288463
			 0.917919  0.101628 -0.383532
			 0.981010 -0.176275 -0.080916
			 0.605125  0.451381 -0.655805
			 0.728586  0.278849 -0.625624
			 0.592746  0.636898 -0.492963
			 0.569221  0.535216 -0.624124
			 0.679283  0.563336 -0.470348
			 0.650677  0.703717 -0.285310
			 0.734225  0.608634  0.300796
			 0.733779  0.632354  0.248390
			 0.655604  0.614463  0.438883
			 0.668995  0.563452  0.484735
			 0.730381  0.519460  0.443515
			 0.893066  0.383883  0.234663
			 0.939203  0.073130  0.335483
			 0.855246 -0.246958  0.455593
			 0.853851 -0.391085  0.343497
			 0.877425 -0.446803  0.174619
			 0.882392  0.016839 -0.470214
			 0.913514 -0.333188 -0.233405
			 0.536677  0.471806 -0.699555
			 0.656247  0.236954 -0.716374
			 0.560076  0.552140 -0.617622
			 0.566081  0.514225 -0.644302
			 0.546002  0.627859 -0.554684
			 0.675763  0.723466 -0.141214
			 0.701126  0.663620  0.260827
			 0.726354  0.488502  0.483503
			 0.824638  0.473328  0.309731
			 0.761115  0.563574  0.321074
			 0.861845  0.468931  0.193201
			 0.978292  0.184411  0.094542
			 0.630584  0.517170  0.578704
			 0.576453  0.384866  0.720819
			 0.574995  0.354942  0.737155
			 0.490569  0.314486  0.812675
			 0.663472  0.503516  0.553422
			 0.986828 -0.141511  0.078394
			 0.891357 -0.302559  0.337552
			 0.780410 -0.491986  0.385889
			 0.786154 -0.577263  0.220745
			 0.815104 -0.578821 -0.023891
			 0.836621 -0.121665 -0.534100
			 0.806349 -0.432784 -0.403112
			 0.426239  0.457693 -0.780280
			 0.457821  0.601800 -0.654398
			 0.713937  0.079222 -0.695714
			 0.542813  0.546907 -0.637375
			 0.473192  0.547085 -0.690498
			 0.437711  0.527722 -0.727955
			 0.484440  0.663005 -0.570739
			 0.647938  0.723642 -0.237736
			 0.731315  0.618541  0.287376
			 0.659431  0.516795  0.545962
			 0.886152  0.372838  0.275185
			 0.748969  0.211127  0.628069
			 0.949149  0.165798  0.267631
			 0.991387 -0.126136  0.035229
			 0.955010 -0.287828  0.071491
			 0.462862  0.426832  0.776900
			 0.516986  0.317777  0.794823
			 0.461626  0.177778  0.869078
			 0.486920  0.182807  0.854102
			 0.515375  0.122488  0.848166
			 0.413408  0.162650  0.895901
			 0.424086  0.446401  0.787958
			 0.890465 -0.430989  0.146017
			 0.755915 -0.559106  0.340577
			 0.676775 -0.687124  0.264267
			 0.726850 -0.686508  0.019904
			 0.717779 -0.659616 -0.222937
			 0.738518 -0.232895 -0.632733
			 0.695268 -0.471877 -0.542158
			 0.417215  0.696997 -0.583204
			 0.318369  0.671450 -0.669176
			 0.290338  0.853293 -0.433123
			 0.598102  0.146533 -0.787910
			 0.383428  0.436393 -0.813968
			 0.331309  0.582814 -0.741999
			 0.383312  0.542608 -0.747428
			 0.346990  0.575212 -0.740762
			 0.405075  0.577600 -0.708725
			 0.435470  0.603499 -0.667948
			 0.615829  0.703137 -0.355462
			 0.721431  0.667413  0.184656
			 0.704309  0.525811  0.476940
			 0.538504  0.499294  0.678763
			 0.941730  0.043360  0.333564
			 0.775441 -0.038202  0.630263
			 0.847073 -0.114392  0.519019
			 0.578298  0.098579  0.809848
			 0.977280 -0.201650 -0.065281
			 0.938836 -0.340672 -0.050299
			 0.845242 -0.529603  0.071325
			 0.269935  0.354575  0.895216
			 0.344174  0.266293  0.900351
			 0.356133  0.117018  0.927079
			 0.363434  0.203093  0.909213
			 0.575079 -0.006926  0.818068
			 0.493708  0.155391  0.855632
			 0.607289  0.011613  0.794396
			 0.672394  0.018286  0.739968
			 0.528299  0.102047  0.842904
			 0.370832  0.108035  0.922395
			 0.265183  0.335828  0.903824
			 0.332446  0.377117  0.864443
			 0.672263 -0.692529  0.261661
			 0.596263 -0.739669  0.312024
			 0.591504 -0.804393  0.055452
			 0.622803 -0.764678 -0.165482
			 0.620853 -0.689453 -0.373090
			 0.598664  0.030297 -0.800427
			 0.640823 -0.256009 -0.723744
			 0.591421 -0.409806 -0.694464
			 0.343462  0.588389 -0.732006
			 0.321097  0.619002 -0.716752
			 0.482667  0.318623 -0.815789
			 0.410800  0.556288 -0.722348
			 0.516577  0.346614 -0.782948
			 0.453818  0.506575 -0.733097
			 0.423329  0.547295 -0.721984
			 0.459301  0.552527 -0.695527
			 0.310739  0.566591 -0.763162
			 0.355886  0.570919 -0.739863
			 0.515326  0.584702 -0.626548
			 0.697418  0.637665 -0.327095
			 0.790727  0.600922  0.116805
			 0.785663  0.431836  0.443003
			 0.670788  0.457069  0.584064
			 0.405703  0.449455  0.795861
			 0.965127 -0.214221  0.150464
			 0.947493 -0.208013  0.242873
			 0.939463 -0.270317  0.210564
			 0.881607 -0.420963 -0.213448
			 0.934258 -0.340641 -0.105480
			 0.805011 -0.590984 -0.051906
			 0.601905 -0.780083  0.170824
			 0.216227  0.145853  0.965387
			 0.108226  0.257003  0.960332
			 0.300772  0.115896  0.946628
			 0.341797  0.063566  0.937622
			 0.370058  0.148391  0.917081
			 0.330051 -0.018759  0.943777
			 0.844894 -0.133227  0.518078
			 0.769122 -0.220722  0.599778
			 0.597871 -0.024814  0.801208
			 0.785167 -0.174592  0.594164
			 0.336818  0.022988  0.941289
			 0.337241  0.042415  0.940462
			 0.058041  0.325273  0.943837
			 0.176075  0.380577  0.907832
			 0.224121  0.424544  0.877230
			 0.419063 -0.849895  0.319476
			 0.496784 -0.840118  0.217732
			 0.440631 -0.894817 -0.071738
			 0.377173 -0.920595  0.101222
			 0.499635 -0.818212 -0.284419
			 0.519671 -0.647779 -0.557067
			 0.537187  0.053513 -0.841764
			 0.516930  0.278635 -0.809411
			 0.545085 -0.204438 -0.813073
			 0.446628 -0.124781 -0.885976
			 0.457653 -0.342365 -0.820573
			 0.326088  0.660880 -0.675947
			 0.434414  0.525800 -0.731314
			 0.316238  0.554567 -0.769708
			 0.291589  0.729196 -0.619071
			 0.519491  0.240557 -0.819915
			 0.498205  0.418901 -0.759153
			 0.642769  0.497431 -0.582589
			 0.264330  0.734088 -0.625495
			 0.239228  0.755072 -0.610439
			 0.016063  0.702237 -0.711762
			 0.172028  0.564976 -0.806975
			 0.333097  0.500651 -0.798997
			 0.482405  0.505016 -0.715712
			 0.658725  0.564308 -0.497633
			 0.785631  0.614651 -0.070630
			 0.835960  0.453374  0.309230
			 0.759865  0.398091  0.513934
			 0.548356  0.453514  0.702588
			 0.313701  0.425442  0.848877
			 0.920831 -0.368457  0.127711
			 0.880338 -0.437669 -0.182894
			 0.899414 -0.415939 -0.134348
			 0.736668 -0.638822 -0.221870
			 0.797300 -0.497597 -0.341627
			 0.625515 -0.780198 -0.004663
			 0.262880 -0.890525  0.371294
			 0.369542 -0.912507  0.175416
			-0.039014 -0.034384  0.998647
			-0.118016  0.076184  0.990085
			 0.157201 -0.101079  0.982380
			 0.507278  0.280262  0.814937
			 0.046213 -0.026445  0.998582
			 0.392882  0.008091  0.919553
			 0.322071 -0.059879  0.944820
			 0.309095 -0.135383  0.941346
			 0.210838 -0.169286  0.962751
			 0.213761 -0.181703  0.959839
			 0.398867 -0.167041  0.901667
			 0.878734 -0.458049  0.134229
			 0.691075 -0.276804  0.667679
			 0.870780 -0.449391  0.199472
			 0.339557 -0.081190  0.937075
			-0.143857  0.470025  0.870851
			-0.233247  0.245371  0.940951
			-0.052448  0.466915  0.882745
			 0.098313  0.456537  0.884256
			 0.256832 -0.928723  0.267415
			 0.287476 -0.940538 -0.180957
			 0.212512 -0.976290 -0.041175
			 0.161019 -0.973343  0.163328
			 0.315375 -0.848192 -0.425569
			 0.329887 -0.602115 -0.727071
			 0.431200  0.016875 -0.902099
			 0.365186  0.195659 -0.910141
			 0.522287  0.216508 -0.824828
			 0.429642  0.235136 -0.871848
			 0.357578 -0.071661 -0.931130
			 0.305275 -0.287302 -0.907890
			 0.239318  0.309294 -0.920361
			 0.177723  0.415759 -0.891941
			 0.047981  0.661876 -0.748076
			 0.013881  0.404166 -0.914580
			 0.196706  0.252352 -0.947431
			 0.402940  0.085324 -0.911241
			-0.208356  0.722788 -0.658912
			-0.315628  0.694298 -0.646783
			-0.181756  0.652502 -0.735667
			-0.049894  0.472104 -0.880130
			 0.204896  0.468824 -0.859198
			 0.270064  0.477940 -0.835846
			 0.394854  0.427423 -0.813265
			 0.607810  0.426436 -0.669865
			 0.771489  0.530221 -0.351668
			 0.851201  0.522731  0.047004
			 0.828059  0.424422  0.366311
			 0.757437  0.372130  0.536477
			 0.548604  0.406229  0.730760
			 0.258439  0.360178  0.896371
			 0.789424 -0.559453 -0.252630
			 0.694368 -0.606134 -0.387885
			 0.756142 -0.571562 -0.318695
			 0.478057 -0.866737 -0.142227
			 0.659282 -0.634744 -0.403047
			 0.138761 -0.929929  0.340556
			 0.088650 -0.923000  0.374449
			-0.167030 -0.865973  0.471372
			-0.240674 -0.185305  0.952753
			-0.318295 -0.148145  0.936345
			-0.176442 -0.211828  0.961248
			-0.475094  0.075665  0.876676
			 0.171108 -0.187109  0.967322
			 0.249966 -0.163343  0.954377
			 0.001587 -0.254961  0.966950
			 0.297962 -0.121136  0.946860
			 0.312107 -0.152275  0.937764
			 0.290739 -0.192169  0.937306
			 0.298305 -0.191834  0.934994
			 0.186371 -0.182565  0.965368
			 0.163360 -0.235880  0.957953
			 0.297701 -0.369168  0.880391
			 0.505953 -0.419252  0.753817
			 0.775859 -0.554372 -0.301190
			 0.703942 -0.621387  0.344013
			 0.756257 -0.649773 -0.076618
			-0.446600  0.461225  0.766694
			-0.302312  0.531266  0.791432
			-0.517747  0.556761  0.649580
			-0.632605  0.212869  0.744646
			-0.427595  0.500240  0.752942
			-0.204417  0.440398  0.874221
			-0.091650  0.476152  0.874574
			 0.105909 -0.916346 -0.386126
			 0.021866 -0.969543 -0.243943
			-0.020105 -0.999086  0.037708
			 0.015175 -0.964180  0.264815
			 0.111162 -0.790054 -0.602875
			 0.155366 -0.467390 -0.870292
			 0.227026  0.075039 -0.970993
			 0.341858  0.059977 -0.937836
			 0.302471  0.198461 -0.932269
			 0.181732 -0.127243 -0.975081
			-0.074070  0.260952 -0.962506
			-0.093281  0.231959 -0.968243
			-0.201291  0.491803 -0.847120
			-0.266918  0.253927 -0.929665
			 0.075806 -0.026297 -0.996776
			 0.058279  0.251682 -0.966054
			 0.210579 -0.416187 -0.884559
			-0.446822  0.674889 -0.587260
			-0.569424  0.661765 -0.487671
			-0.548130  0.594469 -0.588354
			-0.438008  0.451056 -0.777623
			-0.239686  0.325471 -0.914669
			 0.093065  0.443111 -0.891623
			 0.267842  0.404796 -0.874300
			 0.449232  0.363591 -0.816084
			 0.675933  0.440739 -0.590647
			 0.841623  0.494808 -0.216416
			 0.870531  0.443390  0.213495
			 0.803152  0.357285  0.476754
			 0.676219  0.355223  0.645402
			 0.434917  0.346282  0.831225
			 0.270557  0.309897  0.911462
			 0.038227  0.326379  0.944466
			 0.611198 -0.651575 -0.449318
			 0.664867 -0.545002 -0.510807
			 0.508356 -0.713480 -0.482204
			 0.407172 -0.786142 -0.464963
			-0.186583 -0.955230 -0.229616
			-0.104382 -0.932584  0.345532
			-0.644431 -0.667224  0.373526
			-0.356941 -0.642289  0.678275
			-0.651834 -0.684671  0.326094
			-0.298346 -0.168141  0.939531
			-0.241363 -0.211017  0.947215
			-0.524985 -0.287409  0.801116
			-0.659753 -0.194468  0.725885
			-0.751227  0.173089  0.636945
			-0.286762 -0.375779  0.881225
			-0.361648 -0.371488  0.855107
			-0.834020  0.264483  0.484210
			 0.154585 -0.198532  0.967827
			-0.097559 -0.351569  0.931065
			 0.063375 -0.326861  0.942945
			 0.278401 -0.293299  0.914587
			 0.268092 -0.239729  0.933090
			 0.248969 -0.234868  0.939602
			 0.260385 -0.268432  0.927439
			 0.322337 -0.488643  0.810757
			 0.551873 -0.683664  0.477535
			 0.430580 -0.695322  0.575437
			 0.616118 -0.577172 -0.535977
			 0.647446 -0.695681 -0.311194
			 0.631305 -0.775535 -0.000185
			-0.769606  0.401052  0.496854
			-0.770142  0.486776  0.412226
			-0.700082  0.481428  0.527363
			-0.377019  0.488901  0.786659
			-0.609003  0.410391  0.678744
			-0.292897  0.392176  0.872015
			-0.124435 -0.829706 -0.544155
			-0.171142 -0.901338 -0.397869
			-0.234396 -0.961016 -0.146652
			-0.204488 -0.968228  0.143940
			-0.058219 -0.630097 -0.774331
			 0.012080 -0.246995 -0.968941
			 0.084563  0.038970 -0.995656
			 0.308849 -0.102982 -0.945520
			 0.009413  0.159857 -0.987095
			-0.165820  0.265360 -0.949783
			-0.155096  0.325391 -0.932773
			-0.078922  0.311629 -0.946921
			-0.492542  0.410522 -0.767381
			-0.616943  0.236419 -0.750658
			-0.352311  0.263522 -0.898016
			-0.055960  0.346345 -0.936437
			-0.644798  0.618762 -0.448742
			-0.715223  0.675012 -0.181149
			-0.806749  0.491684 -0.327723
			-0.822817  0.291017 -0.488141
			-0.684883  0.216545 -0.695733
			-0.377013  0.192284 -0.906029
			 0.050808  0.343250 -0.937869
			 0.246373  0.332652 -0.910298
			 0.343011  0.326463 -0.880776
			 0.505378  0.387244 -0.771126
			 0.736808  0.444215 -0.509694
			 0.875366  0.471130 -0.108493
			 0.884298  0.415740  0.212550
			 0.837650  0.341211  0.426517
			 0.713800  0.341144  0.611646
			 0.529721  0.293796  0.795663
			 0.243796  0.264980  0.932925
			-0.066865  0.205552  0.976359
			 0.375457 -0.726237 -0.575857
			 0.491892 -0.567339 -0.660431
			 0.139923 -0.800393 -0.582917
			-0.697267 -0.667086 -0.262328
			-0.499096 -0.647495 -0.575893
			-0.326802 -0.908693  0.259765
			-0.639803 -0.739991 -0.207523
			-0.811902 -0.583787  0.002825
			-0.602635 -0.464955  0.648574
			-0.655883 -0.742214 -0.137607
			-0.456710 -0.427026  0.780426
			-0.510550 -0.682306  0.523257
			-0.273354 -0.429210  0.860846
			-0.403651 -0.425395  0.810003
			-0.553247 -0.295908  0.778689
			-0.673871 -0.162339  0.720794
			-0.796149  0.028591  0.604425
			-0.854865  0.485102  0.184068
			-0.848058  0.428977  0.311090
			-0.317514 -0.333721  0.887590
			-0.505891 -0.204972  0.837891
			-0.915161  0.338190  0.219333
			-0.164239 -0.384075  0.908577
			 0.047303 -0.392660  0.918466
			 0.077579 -0.387007  0.918808
			 0.344578 -0.296983  0.890543
			 0.238510 -0.318328  0.917486
			 0.254664 -0.434442  0.863948
			 0.438635 -0.688234  0.577869
			 0.527527 -0.822444  0.212840
			 0.516164 -0.848339  0.117883
			 0.427424 -0.514763 -0.743188
			 0.469290 -0.657433 -0.589533
			 0.505026 -0.828519 -0.241877
			-0.917316  0.342388  0.203229
			-0.901233  0.313356  0.299312
			-0.873844  0.234521  0.425906
			-0.495282  0.369573  0.786201
			-0.762256  0.233192  0.603811
			-0.383187  0.158415  0.909985
			-0.334326 -0.673048 -0.659721
			-0.396908 -0.812352 -0.427258
			-0.440882 -0.862347 -0.248957
			-0.431540 -0.902010 -0.012294
			-0.194434 -0.364387 -0.910724
			-0.087764 -0.037634 -0.995430
			-0.165910  0.151472 -0.974438
			-0.113985  0.325762 -0.938555
			-0.215543  0.337079 -0.916471
			-0.194100  0.337267 -0.921182
			-0.808032  0.353269 -0.471471
			-0.902731  0.211060 -0.374875
			-0.759417  0.208808 -0.616186
			-0.426426  0.482193 -0.765278
			-0.234764  0.318892 -0.918256
			-0.412687  0.391602 -0.822397
			-0.824189  0.532577 -0.192544
			-0.858455  0.512057  0.029188
			-0.822032  0.561496  0.094792
			-0.970476  0.230575 -0.070786
			-0.989445  0.117189 -0.085235
			-0.968983  0.036322 -0.244445
			-0.804577  0.031516 -0.593012
			-0.495805  0.065391 -0.865968
			-0.040612  0.252811 -0.966663
			 0.084498  0.289816 -0.953345
			 0.333021  0.332852 -0.882217
			 0.584096  0.395480 -0.708821
			 0.798442  0.482483 -0.360140
			 0.881627  0.469009  0.052570
			 0.849578  0.396562  0.347786
			 0.772169  0.325946  0.545449
			 0.630220  0.312649  0.710685
			 0.415635  0.223205  0.881718
			 0.145877  0.136492  0.979842
			-0.181556  0.075852  0.980451
			 0.027535 -0.736504 -0.675873
			 0.224091 -0.576499 -0.785769
			-0.414689 -0.596078 -0.687549
			-0.653969 -0.494648 -0.572406
			-0.521842 -0.842172  0.135747
			-0.691367 -0.569907 -0.444092
			-0.527788 -0.764182 -0.370764
			-0.960385 -0.263637  0.090312
			-0.689818 -0.442642  0.572903
			-0.792804 -0.428999 -0.432922
			-0.856115 -0.456678 -0.241893
			-0.478625 -0.464288  0.745221
			-0.426111 -0.335303  0.840239
			-0.427472 -0.323980  0.843981
			-0.407765 -0.423860  0.808746
			-0.416276 -0.380366  0.825855
			-0.506350 -0.645634 -0.571634
			-0.539062 -0.531486  0.653403
			-0.629227 -0.648777  0.427974
			-0.457295 -0.420121  0.783824
			-0.681056 -0.111296  0.723723
			-0.834705  0.153588  0.528847
			-0.843800  0.070188  0.532048
			-0.926333  0.368558 -0.077921
			-0.798066  0.600939 -0.044299
			-0.851478  0.524250 -0.012077
			-0.957194  0.278098  0.080263
			-0.539864 -0.290679  0.789970
			-0.428348 -0.400459  0.810032
			-0.786613 -0.295270  0.542268
			-0.156319 -0.412516  0.897438
			-0.027333 -0.401517  0.915444
			-0.061648 -0.434295  0.898659
			-0.024908 -0.383721  0.923113
			 0.093783 -0.505212  0.857885
			 0.217674 -0.737019  0.639860
			 0.372525 -0.907813  0.192616
			 0.395714 -0.900711 -0.179248
			 0.389458 -0.911908 -0.129404
			 0.279371 -0.421944 -0.862505
			 0.320117 -0.829673 -0.457348
			 0.293502 -0.534565 -0.792525
			-0.990786  0.065637 -0.118467
			-0.994208  0.094330 -0.051494
			-0.992541  0.032317 -0.117547
			-0.973161  0.106581  0.203958
			-0.649711  0.202670  0.732667
			-0.957196  0.139247  0.253743
			-0.736931  0.127222  0.663887
			-0.466245  0.038246  0.883829
			-0.489244 -0.424466 -0.761885
			-0.609041 -0.654589 -0.447865
			-0.617681 -0.725767 -0.302873
			-0.658742 -0.738596 -0.143300
			-0.291811 -0.107318 -0.950436
			-0.384787  0.129768 -0.913837
			-0.947424  0.292538 -0.129651
			-0.937311  0.183491 -0.296274
			-0.974990  0.194479 -0.107576
			-0.925741  0.040643 -0.375968
			-0.820284  0.225062 -0.525815
			-0.757671  0.050310 -0.650695
			-0.817135  0.529206  0.228543
			-0.814002  0.556394  0.166811
			-0.940972  0.338187  0.014220
			-0.718995  0.550964  0.423657
			-0.909160  0.182243  0.374455
			-0.987218  0.063784  0.146057
			-0.990911 -0.033236  0.130348
			-0.984807 -0.166809  0.048273
			-0.970277 -0.098052 -0.221245
			-0.843723 -0.121097 -0.522941
			-0.777523 -0.092791 -0.621971
			-0.374111  0.089387 -0.923066
			-0.257947  0.163990 -0.952140
			 0.174303  0.319113 -0.931550
			 0.469203  0.345108 -0.812865
			 0.299318  0.314770 -0.900738
			 0.712067  0.432655 -0.552965
			 0.875459  0.463136 -0.138116
			 0.868923  0.433072  0.239628
			 0.799602  0.348469  0.489087
			 0.687660  0.258920  0.678295
			 0.493795  0.199959  0.846276
			 0.221453  0.113386  0.968557
			-0.082296  0.029906  0.996159
			-0.427177 -0.027554  0.903748
			-0.084184 -0.434096 -0.896925
			-0.299367 -0.183705 -0.936286
			-0.400455 -0.422169 -0.813271
			-0.730693 -0.682172  0.027003
			-0.478530 -0.602393 -0.638851
			-0.655407 -0.394055 -0.644331
			-0.865998 -0.258191 -0.428235
			-0.956078 -0.183073 -0.228908
			-0.766623 -0.072872  0.637949
			-0.984145 -0.168649 -0.054922
			-0.963708 -0.138105  0.228462
			-0.524986 -0.359752  0.771341
			-0.754698 -0.379989 -0.534826
			-0.502355 -0.411746  0.760332
			-0.416945 -0.341640  0.842282
			-0.449980 -0.372730  0.811536
			-0.624427 -0.537175  0.567039
			-0.757670 -0.496723  0.423324
			-0.698901 -0.432738  0.569452
			-0.948768 -0.123605  0.290793
			-0.980563  0.161680  0.111160
			-0.856885  0.197139 -0.476323
			-0.743786  0.569254 -0.350331
			-0.783905  0.563665 -0.260337
			-0.927931  0.325772 -0.181151
			-0.949354  0.205051 -0.238076
			-0.660965 -0.497657  0.561661
			-0.745291 -0.461672  0.481041
			-0.669027 -0.582946  0.461060
			-0.427054 -0.481328  0.765472
			-0.955190 -0.294189  0.032625
			-0.892562 -0.442036  0.089094
			-0.186805 -0.627248  0.756085
			 0.023330 -0.393742  0.918925
			-0.171222 -0.527507  0.832117
			-0.147473 -0.565828  0.811228
			 0.021381 -0.745934  0.665677
			 0.122834 -0.927779  0.352333
			 0.193912 -0.979882 -0.047217
			 0.170915 -0.924799 -0.339904
			 0.251230 -0.884666 -0.392746
			 0.165311 -0.151531 -0.974531
			 0.145880 -0.710832 -0.688067
			 0.151643 -0.366354 -0.918036
			-0.843143 -0.013966 -0.537508
			-0.814414 -0.065435 -0.576583
			-0.757750 -0.137979 -0.637791
			-0.938008  0.018421 -0.346123
			-0.919680 -0.055911 -0.388668
			-0.985073  0.111408  0.131223
			-0.736611  0.002340  0.676312
			-0.975955  0.046134  0.213033
			-0.596164 -0.153739 -0.788005
			-0.729444 -0.430784 -0.531354
			-0.787825 -0.518199 -0.332869
			-0.844270 -0.504707 -0.180218
			-0.969009  0.239525 -0.060406
			-0.938964  0.098281 -0.329678
			-0.843361  0.295021 -0.449115
			-0.979261  0.141471 -0.145028
			-0.984304  0.038615 -0.172207
			-0.981138  0.176843 -0.078075
			-0.818453  0.112828 -0.563387
			-0.800049 -0.183305 -0.571246
			-0.631702  0.702769  0.327214
			-0.682984  0.472022  0.557430
			-0.935488  0.124945  0.330533
			-0.972160  0.223006 -0.071922
			-0.669868  0.620375  0.407936
			-0.680863  0.554064  0.478998
			-0.982895 -0.076064  0.167728
			-0.984243  0.130584  0.119221
			-0.775749  0.391616  0.494824
			-0.844889  0.470359  0.254803
			-0.984103 -0.136518  0.113595
			-0.978758 -0.189304  0.078725
			-0.978327 -0.200491  0.051772
			-0.963004 -0.243459 -0.115550
			-0.943545 -0.201833 -0.262652
			-0.946000 -0.215696 -0.241992
			-0.732695 -0.105303 -0.672361
			-0.621577 -0.058637 -0.781155
			-0.081549  0.218480 -0.972428
			 0.211567  0.278121 -0.936957
			 0.378514  0.291419 -0.878523
			 0.614430  0.406443 -0.676225
			 0.822830  0.453038 -0.343085
			 0.902076  0.426109  0.068485
			 0.841886  0.395740  0.366904
			 0.718284  0.354906  0.598423
			 0.563616  0.271769  0.780050
			 0.331808  0.125903  0.934908
			 0.047486  0.042373  0.997973
			-0.280387 -0.032454  0.959338
			-0.643981 -0.082269  0.760605
			 0.131940  0.091006 -0.987071
			 0.036947  0.062476 -0.997362
			-0.141410 -0.179323 -0.973574
			-0.877503 -0.479395 -0.012979
			-0.481694 -0.110753 -0.869313
			-0.796929 -0.066907 -0.600356
			-0.889498 -0.141120 -0.434602
			-0.999256  0.035690  0.014647
			-0.876095  0.004973 -0.482113
			-0.949802  0.019643 -0.312234
			-0.881895 -0.085111  0.463700
			-0.749348  0.024500  0.661723
			-0.703054 -0.113195  0.702070
			-0.949195  0.281571  0.140524
			-0.890482  0.213827  0.401646
			-0.753977 -0.273565  0.597228
			-0.697666 -0.325734  0.638090
			-0.693231 -0.302378  0.654216
			-0.732150 -0.397153  0.553377
			-0.789382 -0.384417  0.478644
			-0.969749 -0.242349 -0.029225
			-0.707205 -0.439309  0.553958
			-0.991477  0.021219 -0.128543
			-0.809176  0.081393 -0.581902
			-0.678585  0.349808 -0.645877
			-0.823331  0.174226 -0.540159
			-0.874966  0.118088 -0.469564
			-0.670031  0.465932 -0.577897
			-0.552867  0.582277 -0.596063
			-0.594591  0.469110 -0.652991
			-0.842550  0.364455 -0.396587
			-0.760209  0.242974 -0.602533
			-0.906891  0.141096 -0.397039
			-0.803977 -0.566721  0.180136
			-0.495213 -0.672225  0.550342
			-0.822816 -0.567789  0.024254
			-0.719544 -0.662232  0.209058
			-0.936438 -0.162997 -0.310671
			-0.871219 -0.395346 -0.290995
			-0.829722 -0.526926 -0.184146
			-0.040410 -0.861016  0.506969
			-0.129308 -0.825971  0.548681
			-0.204548 -0.634243  0.745584
			-0.199628 -0.641416  0.740766
			-0.072392 -0.850175  0.521500
			-0.028210 -0.996235  0.081978
			-0.016522 -0.975184 -0.220779
			-0.036978 -0.872192 -0.487764
			 0.091403 -0.781475 -0.617206
			 0.004400 -0.569735 -0.821817
			 0.079585 -0.230495 -0.969814
			-0.663312 -0.136009 -0.735880
			-0.835707 -0.175481 -0.520384
			-0.784933 -0.157132 -0.599325
			-0.790841 -0.292007 -0.537869
			-0.943774 -0.060793 -0.324953
			-0.901723 -0.075939  0.425593
			-0.991170 -0.124577 -0.045418
			-0.954346  0.008403 -0.298584
			-0.899098 -0.239711 -0.366282
			-0.960093 -0.233856 -0.153405
			-0.996113  0.032855 -0.081726
			-0.948264 -0.057203  0.312289
			-0.832819 -0.141598  0.535128
			-0.461584  0.867471  0.185563
			-0.774329 -0.241778  0.584772
			-0.987332 -0.112044 -0.112346
			-0.977890 -0.124625 -0.167926
			-0.969106  0.207954 -0.132620
			-0.943787 -0.330054  0.018191
			-0.966683 -0.254833 -0.024171
			-0.972057 -0.134532 -0.192369
			-0.960321 -0.278291  0.018403
			-0.953594 -0.300437  0.019878
			-0.917764 -0.293446 -0.267579
			-0.871697 -0.286585 -0.397510
			-0.449575  0.005979 -0.893223
			 0.036787  0.217622 -0.975340
			 0.234723  0.250286 -0.939288
			 0.382045  0.302209 -0.873334
			 0.598065  0.374671 -0.708477
			 0.771759  0.471089 -0.427158
			 0.877289  0.476556 -0.057078
			 0.872832  0.401127  0.277959
			 0.774459  0.345304  0.530073
			 0.640752  0.293913  0.709262
			 0.425039  0.158088  0.891263
			 0.101294  0.032252  0.994334
			-0.242527 -0.021990  0.969896
			-0.553206 -0.079649  0.829228
			-0.858432 -0.163595  0.486139
			-0.019662 -0.091012 -0.995656
			-0.154793  0.047854 -0.986787
			-0.130346  0.286156 -0.949276
			-0.741743  0.017060 -0.670467
			-0.438373  0.309598 -0.843788
			-0.769221  0.162672 -0.617930
			-0.847155  0.025138 -0.530750
			-0.501880  0.360622 -0.786173
			-0.935400  0.079878 -0.344451
			-0.872254 -0.096440 -0.479449
			-0.574140  0.537777 -0.617381
			-0.634154  0.386237 -0.669828
			-0.569199  0.489067 -0.660928
			-0.485573  0.541955 -0.685933
			-0.563663  0.329911 -0.757260
			-0.713176  0.116404 -0.691252
			-0.738376 -0.068620 -0.670890
			-0.255912 -0.910992  0.323422
			-0.769677 -0.536791 -0.345619
			-0.750949 -0.620242 -0.226663
			-0.477661 -0.875752 -0.069994
			-0.758290 -0.295987 -0.580851
			-0.780593 -0.474708 -0.406603
			-0.307879 -0.788327  0.532684
			-0.304973 -0.755350  0.580033
			-0.431987 -0.758243  0.488319
			-0.206264 -0.924611  0.320235
			-0.255305 -0.965466 -0.051910
			-0.208701 -0.909112 -0.360500
			-0.238214 -0.744703 -0.623436
			-0.063571 -0.628500 -0.775207
			-0.188858 -0.446644 -0.874552
			-0.915153 -0.230782 -0.330506
			-0.897809 -0.341014 -0.278654
			-0.891220 -0.232996 -0.389153
			-0.961800 -0.271340  0.036278
			-0.921085 -0.357604 -0.154017
			-0.922883 -0.158320 -0.351030
			-0.953433 -0.297021 -0.052375
			-0.946255 -0.299015 -0.123254
			-0.925921 -0.364782 -0.098004
			-0.920780 -0.385012 -0.062689
			-0.868344 -0.271863 -0.414813
			-0.579837 -0.066738 -0.811994
			-0.093380  0.148582 -0.984481
			 0.189194  0.228326 -0.955025
			 0.309378  0.278256 -0.909318
			 0.566309  0.372438 -0.735244
			 0.800625  0.450301 -0.395257
			 0.875598  0.474098 -0.092519
			 0.872315  0.436908  0.219495
			 0.803031  0.362606  0.472925
			 0.674674  0.297516  0.675499
			 0.477143  0.196560  0.856562
			 0.116076  0.049662  0.991998
			-0.237840 -0.050112  0.970011
			-0.609993 -0.154672  0.777165
			-0.871372 -0.250603  0.421793
			-0.345184 -0.248440 -0.905056
			-0.430162  0.003596 -0.902745
			-0.487755  0.231324 -0.841775
			-0.724807  0.285811 -0.626871
			-0.628491  0.366919 -0.685835
			-0.805856 -0.178093 -0.564694
			-0.823290 -0.137805 -0.550639
			-0.719808 -0.118745 -0.683941
			-0.361251 -0.897517  0.252904
			-0.764236 -0.543613 -0.347028
			-0.765308 -0.576118 -0.287041
			-0.641577 -0.744770 -0.183565
			-0.501306 -0.855831 -0.127460
			-0.423884 -0.905503  0.019674
			-0.713675 -0.384973 -0.585205
			-0.814350 -0.475984 -0.332074
			-0.373198 -0.904793  0.205115
			-0.430094 -0.881374 -0.195447
			-0.535049 -0.842358  0.064466
			-0.381943 -0.748540 -0.542040
			-0.259993 -0.470438 -0.843263
			-0.443550 -0.528863 -0.723579
			-0.947321 -0.317396  0.042919
			-0.912900 -0.398242 -0.089537
			-0.936042 -0.344739 -0.070572
			-0.908972 -0.297964 -0.291526
			-0.727156 -0.124708 -0.675050
			-0.243805  0.038264 -0.969069
			 0.183444  0.119931 -0.975687
			 0.369580  0.251048 -0.894643
			 0.633676  0.374417 -0.676955
			 0.788519  0.460582 -0.407556
			 0.879226  0.474884 -0.038039
			 0.837792  0.420731  0.347979
			 0.714846  0.356850  0.601376
			 0.552567  0.306303  0.775144
			 0.226325  0.176984  0.957838
			-0.166956 -0.013643  0.985870
			-0.500284 -0.113361  0.858409
			-0.867488 -0.262924  0.422299
			-0.478900 -0.236261 -0.845479
			-0.631455  0.001971 -0.775410
			-0.672974 -0.306510 -0.673170
			-0.699764 -0.667942 -0.253346
			-0.570616 -0.560213 -0.600465
			-0.957050 -0.289624  0.013196
			-0.952424 -0.298770  0.060212
			-0.912621 -0.356191 -0.200625
			-0.826382 -0.257536 -0.500768
			-0.621719 -0.111333 -0.775288
			 0.069408  0.128787 -0.989240
			-0.257465  0.059604 -0.964448
			 0.214206  0.168793 -0.962094
			 0.273428  0.224973 -0.935213
			 0.316192  0.288488 -0.903768
			 0.458668  0.332775 -0.823945
			 0.773979  0.440160 -0.455211
			 0.707743  0.434449 -0.557094
			 0.833730  0.495522 -0.243625
			 0.905003  0.421583  0.056898
			 0.826796  0.285659  0.484570
			 0.833653  0.175251  0.523746
			 0.649594  0.166104  0.741914
			 0.666057  0.305644  0.680404
			 0.406681  0.323973  0.854197
			-0.091221  0.023022  0.995565
			 0.235380  0.169684  0.956976
			-0.283550 -0.092975  0.954440