<?xml version="1.0"?>
<VTKFile type="PolyData" version="0.1" byte_order="LittleEndian" compressor="vtkZLibDataCompressor">
	<PolyData>
		<Piece NumberOfPoints="2203" NumberOfVerts="0" NumberOfLines="0" NumberOfStrips="0" NumberOfPolys="4407">
		<PointData Normals="Normals">
		<DataArray type="Float32" Name="Normals" NumberOfComponents="3" format="ascii">
			-0.181380  0.214442  0.959748
			-0.197199  0.315141  0.928331
			-0.166846  0.081133  0.982639
			-0.250237 -0.026452  0.967823
			-0.023284  0.229625  0.973001
			-0.164887  0.016728  0.986171
			-0.215518  0.196708  0.956482
			-0.512413  0.040172  0.857799
			-0.133567  0.057307  0.989381
			-0.055310  0.070361  0.995987
			-0.408913  0.157750  0.898835
			-0.623097  0.218111  0.751118
			-0.488966 -0.315360  0.813302
			-0.379195 -0.064812  0.923044
			-0.108631 -0.014215  0.993981
			 0.266027 -0.359063  0.894597
			 0.301268 -0.099483  0.948336
			-0.175420 -0.065229  0.982331
			-0.086100  0.008168  0.996253
			-0.199047 -0.120334  0.972574
			-0.263303  0.006440  0.964692
			-0.222943 -0.059993  0.972984
			-0.858686  0.397850  0.323070
			-0.773412  0.071525  0.629855
			-0.233719  0.007443  0.972276
			-0.091658  0.100409  0.990715
			-0.459228  0.100121  0.882658
			-0.853565  0.401218  0.332341
			-0.618274 -0.091646  0.780601
			-0.643972 -0.564485  0.516388
			 0.636892 -0.458408 -0.619864
			 0.406647 -0.851031 -0.332241
			-0.379621 -0.048183  0.923886
			-0.168338 -0.305262  0.937271
			-0.129932 -0.240101  0.962013
			 0.241888 -0.368285  0.897695
			-0.236020 -0.026703  0.971381
			-0.099814  0.080403  0.991752
			 0.464556 -0.217671  0.858375
			-0.385040  0.086995  0.918791
			-0.190055 -0.196749  0.961857
			-0.334041 -0.156611  0.929456
			-0.328175  0.036247  0.943921
			-0.969937  0.220270  0.103457
			-0.833654  0.533087 -0.144357
			-0.272247  0.025967  0.961877
			-0.212717  0.007583  0.977085
			 0.010483 -0.041219  0.999095
			-0.171328 -0.090224  0.981074
			-0.955887 -0.020746  0.293001
			-0.924438  0.225493 -0.307517
			-0.834141 -0.033024  0.550562
			-0.635455  0.075164  0.768471
			-0.962481 -0.237585 -0.131086
			 0.703278 -0.690800 -0.167918
			-0.987938  0.079427  0.132926
			 0.747877 -0.663819 -0.004916
			 0.625584 -0.753502  0.202187
			 0.523578 -0.752941  0.398680
			-0.407601 -0.029574  0.912681
			-0.063664 -0.290185  0.954851
			-0.384093 -0.023816  0.922987
			 0.212289 -0.830400  0.515141
			-0.232596 -0.609840  0.757624
			 0.499018 -0.708635  0.498816
			 0.619593 -0.740461  0.260427
			-0.311737  0.014036  0.950065
			-0.236923  0.129837  0.962813
			-0.022340  0.159697  0.986913
			 0.338396 -0.040480  0.940133
			 0.774097 -0.358469  0.521799
			 0.928647 -0.245307  0.278280
			 0.795974 -0.605303  0.005843
			-0.401954 -0.005314  0.915645
			-0.242182 -0.188004  0.951842
			-0.519621 -0.019197  0.854181
			-0.406003  0.129548  0.904643
			-0.394837  0.194747  0.897874
			-0.341153  0.142789  0.929100
			-0.919282  0.306906 -0.246433
			-0.723900  0.415214 -0.550969
			-0.679993  0.483355 -0.551342
			-0.285740  0.102433  0.952817
			-0.256711  0.050687  0.965158
			-0.119998 -0.050863  0.991470
			 0.087452 -0.095706  0.991561
			-0.501558 -0.559416  0.659919
			-0.940424 -0.315070 -0.127804
			-0.985891  0.039413 -0.162680
			-0.772039 -0.087626 -0.629505
			-0.729654 -0.231206 -0.643544
			-0.851535 -0.156794 -0.500304
			-0.943954  0.045832 -0.326879
			-0.861549  0.133705  0.489751
			-0.676920  0.066685  0.733030
			-0.801462  0.163884 -0.575153
			-0.934257  0.202691 -0.293394
			-0.943708  0.276993 -0.180804
			-0.963829  0.194582  0.182128
			-0.350921  0.129438 -0.927416
			-0.432145 -0.124328 -0.893192
			 0.566985 -0.787498  0.241611
			-0.481393 -0.025532  0.876133
			-0.606421  0.033465  0.794439
			-0.472916  0.045223  0.879946
			-0.529454 -0.058869  0.846294
			-0.446204 -0.391345  0.804830
			 0.422886 -0.905972 -0.019558
			-0.018218 -0.979935 -0.198485
			 0.750564 -0.580778 -0.315198
			 0.670238 -0.383913 -0.635131
			 0.459934 -0.483344 -0.744876
			-0.434278  0.110180  0.894015
			-0.311644  0.108116  0.944028
			-0.189111  0.201238  0.961114
			 0.570333  0.022689  0.821100
			 0.176185  0.148831  0.973041
			 0.895223 -0.265573  0.357836
			 0.859867 -0.502822 -0.088311
			 0.805377 -0.344294 -0.482523
			 0.741332 -0.566530 -0.359822
			 0.000000  0.000000  0.000000
			-0.679132  0.178840  0.711896
			-0.653072  0.304856  0.693224
			-0.566197  0.316315  0.761161
			-0.112493  0.481913  0.868968
			-0.228357  0.407114  0.884370
			-0.304343  0.388956  0.869534
			-0.270425  0.283181  0.920151
			-0.591085  0.206409 -0.779752
			-0.237918  0.313938  0.919151
			-0.273613  0.178269  0.945175
			-0.069469  0.074063  0.994831
			 0.191292 -0.063147  0.979500
			-0.166931 -0.430114  0.887207
			-0.788102 -0.579513  0.207507
			-0.843715 -0.438663 -0.309386
			-0.922388 -0.114328 -0.368957
			-0.672287 -0.134908 -0.727894
			-0.527987 -0.263103 -0.807469
			-0.531423 -0.399278 -0.747105
			-0.236603 -0.504399 -0.830422
			-0.480803 -0.374260 -0.792943
			-0.741524 -0.179479 -0.646475
			-0.862596 -0.112319 -0.493267
			-0.881632  0.203555  0.425781
			-0.720509  0.119893  0.683002
			-0.477504  0.347164 -0.807135
			-0.749650  0.221996 -0.623492
			-0.762760  0.246841 -0.597717
			-0.920048  0.339560 -0.195476
			-0.937276  0.318286  0.142153
			-0.767070  0.333910 -0.547820
			-0.297289  0.290160 -0.909630
			-0.670346 -0.156916 -0.725268
			-0.540170 -0.097634 -0.835873
			 0.539737 -0.839988  0.055726
			 0.929572 -0.073158 -0.361310
			-0.749812  0.244667  0.614752
			-0.768321 -0.062822  0.636974
			-0.714243 -0.521544  0.466742
			-0.545424 -0.670660  0.502721
			-0.147814 -0.221371 -0.963922
			-0.219402 -0.546329 -0.808324
			 0.066561 -0.850607 -0.521571
			-0.245808 -0.969123 -0.019470
			 0.660238 -0.055073 -0.749035
			 0.536013 -0.251360 -0.805920
			 0.532273 -0.073216 -0.843401
			 0.365207 -0.199049 -0.909397
			 0.208708 -0.325130 -0.922351
			-0.647726  0.328224  0.687546
			-0.327179  0.234518  0.915399
			-0.435213  0.378785  0.816769
			-0.087462  0.215190  0.972648
			 0.330028  0.157006  0.930823
			 0.813022 -0.048837  0.580180
			 0.971163 -0.174767  0.162170
			 0.887029 -0.341851 -0.310349
			 0.806951 -0.456128 -0.375202
			 0.899525 -0.115007 -0.421460
			 0.768701  0.194104 -0.609444
			 0.754857 -0.456191 -0.471255
			 0.586596 -0.619452 -0.521712
			-0.651851  0.387264  0.652010
			-0.425529  0.511201  0.746725
			-0.099314  0.440522  0.892232
			 0.364015  0.677466  0.639166
			 0.388688  0.635608  0.667027
			 0.481135  0.608287  0.631265
			 0.022803  0.636956  0.770563
			-0.115580  0.544921  0.830483
			-0.078148  0.505782  0.859114
			-0.086067  0.457858  0.884850
			-0.255564  0.318157  0.912942
			-0.181469  0.112475  0.976943
			-0.005640  0.032109  0.999468
			 0.094643  0.089629  0.991468
			-0.356733  0.029975  0.933725
			-0.998805 -0.027228  0.040575
			-0.975060  0.042479 -0.217840
			-0.887261 -0.139649 -0.439621
			-0.312526 -0.486141 -0.816085
			-0.282321 -0.202870 -0.937624
			 0.023880 -0.468767 -0.882999
			 0.005461 -0.125922 -0.992025
			 0.881509 -0.159013 -0.444587
			 0.820851 -0.369688 -0.435356
			-0.626928 -0.080086 -0.774950
			 0.565992 -0.389324 -0.726691
			-0.777751 -0.074569 -0.624134
			-0.692218 -0.021579 -0.721366
			-0.847567 -0.040456 -0.529144
			-0.892503  0.308775  0.328780
			-0.494102  0.203916 -0.845152
			-0.209689  0.282632 -0.936029
			-0.495437  0.194387 -0.846614
			-0.814915  0.241781 -0.526740
			-0.952255  0.298481 -0.064187
			-0.526670  0.176337 -0.831579
			-0.248196  0.155208 -0.956195
			-0.637050 -0.338215 -0.692660
			-0.454524 -0.358360 -0.815467
			-0.500215 -0.370485 -0.782640
			-0.408703 -0.062270 -0.910541
			 0.613568 -0.771921  0.166347
			 0.821283  0.262790 -0.506396
			 0.876150  0.200836 -0.438207
			 0.986999  0.074356 -0.142495
			 0.806638  0.094154 -0.583499
			 0.977112  0.192752 -0.089997
			 0.955006  0.067012 -0.288916
			 0.839838  0.025906 -0.542219
			-0.799885  0.109604  0.590060
			-0.868058 -0.035658  0.495181
			-0.786121 -0.586372  0.195398
			-0.630623 -0.749444  0.201612
			-0.481138 -0.819618  0.311020
			-0.175200 -0.444638 -0.878409
			-0.481548 -0.236369 -0.843944
			-0.229833 -0.484351 -0.844145
			 0.331205 -0.601919 -0.726634
			 0.345239 -0.726218 -0.594489
			-0.149628 -0.973106 -0.175143
			 0.540575 -0.694509 -0.474801
			 0.656803  0.049555 -0.752432
			 0.437622 -0.360536 -0.823711
			 0.574812 -0.084585 -0.813902
			 0.450048 -0.346149 -0.823188
			 0.212386 -0.191212 -0.958295
			-0.040128 -0.254094 -0.966347
			-0.724353  0.395774  0.564514
			-0.865834  0.348830  0.358676
			-0.328823  0.348418  0.877770
			-0.250794  0.109520  0.961825
			-0.025889  0.141703  0.989571
			-0.483717  0.455592  0.747298
			 0.507166  0.031947  0.861256
			 0.910355 -0.146957  0.386857
			 0.958392 -0.272715 -0.084329
			 0.820678 -0.317587 -0.475001
			 0.848976 -0.297259 -0.436894
			 0.847283  0.426468 -0.316603
			 0.814507  0.362185 -0.453212
			 0.815114 -0.048153 -0.577297
			 0.781424  0.206544 -0.588827
			 0.663284 -0.299943 -0.685631
			 0.043462 -0.604511 -0.795410
			 0.486654 -0.344494 -0.802802
			-0.000750 -0.415470 -0.909607
			-0.491895  0.526740  0.693242
			-0.149191  0.722451  0.675134
			 0.420156  0.746449  0.516025
			 0.373837 -0.915462 -0.148914
			 0.373837 -0.915462 -0.148914
			 0.483663  0.731052  0.481283
			 0.646355  0.620959  0.443436
			 0.648760  0.686935  0.327461
			 0.750132  0.587410  0.303730
			 0.784913  0.517704  0.340432
			 0.217710  0.717854  0.661277
			 0.217801  0.666204  0.713256
			 0.198380  0.595175  0.778725
			 0.059370  0.402199  0.913625
			-0.159097  0.286405  0.944807
			-0.220839  0.145916  0.964333
			-0.096772  0.080497  0.992046
			 0.011138  0.090272  0.995855
			-0.539490  0.400036  0.740892
			-0.922511  0.346846  0.169328
			-0.973773  0.163470 -0.158250
			-0.894994 -0.010420 -0.445956
			 0.144276 -0.136977 -0.980011
			 0.809336  0.008581 -0.587283
			 0.988597  0.123169  0.086637
			 0.985938  0.139873 -0.091446
			 0.992902 -0.018168  0.117542
			 0.997455  0.023870  0.067187
			-0.647001  0.029960 -0.761901
			 0.516112 -0.189079 -0.835391
			 0.986625 -0.061472  0.150973
			-0.713967 -0.001168 -0.700179
			-0.830434  0.030899 -0.556259
			-0.966510  0.255585 -0.023114
			-0.212813  0.152569 -0.965108
			-0.065408  0.077119 -0.994874
			-0.212623  0.009816 -0.977085
			-0.667029  0.005858 -0.745009
			-0.896436  0.073257 -0.437077
			-0.490352  0.031903 -0.870941
			-0.260174  0.048303 -0.964353
			 0.270467 -0.089438 -0.958566
			 0.529622  0.119879 -0.839720
			 0.810172  0.104199 -0.576857
			 0.857121  0.089337 -0.507309
			 0.943941 -0.205230 -0.258565
			 0.897500  0.328301 -0.294470
			 0.899913  0.154809 -0.407665
			 0.682267  0.017336 -0.730898
			 0.958810  0.192243 -0.209108
			 0.882253  0.098668 -0.460320
			 0.745582  0.016620 -0.666207
			-0.455682  0.585226  0.670720
			-0.531605  0.583649  0.613799
			-0.956529 -0.044146  0.288278
			-0.778239 -0.621493 -0.089943
			-0.565206 -0.824536  0.026127
			-0.559123 -0.829032 -0.009379
			-0.445246 -0.269916 -0.853757
			-0.478059 -0.462134 -0.746922
			 0.123505 -0.318967 -0.939685
			 0.732369 -0.286880 -0.617524
			 0.889795 -0.234669 -0.391401
			 0.837340 -0.291403 -0.462544
			-0.037397 -0.950657 -0.307982
			 0.917589  0.217591 -0.332694
			 0.874017  0.037278 -0.484463
			 0.522139 -0.711118 -0.470831
			 0.378188 -0.133598 -0.916038
			 0.733561  0.243856 -0.634369
			 0.366779  0.015964 -0.930171
			 0.255444 -0.072325 -0.964115
			 0.098843  0.008031 -0.995071
			 0.075954 -0.124059 -0.989363
			-0.328391 -0.180616 -0.927112
			-0.181589 -0.188521 -0.965135
			-0.952399  0.238147  0.190319
			-0.988908  0.132481  0.067155
			-0.865068  0.278114  0.417505
			-0.981951  0.104666 -0.157538
			-0.307584  0.288006  0.906887
			-0.222970  0.481814  0.847431
			 0.031911  0.281822  0.958936
			 0.636533  0.136030  0.759158
			-0.329064  0.440346  0.835352
			-0.631924  0.240205  0.736868
			-0.872727  0.025108  0.487563
			 0.953997 -0.067299  0.292165
			 0.957709 -0.206669 -0.200205
			 0.879628 -0.217197 -0.423179
			 0.742517 -0.171504 -0.647498
			 0.619725 -0.199795 -0.758961
			 0.859096 -0.214459 -0.464716
			 0.331204 -0.185634 -0.925118
			 0.501760 -0.129873 -0.855202
			 0.517430  0.774846  0.363151
			 0.265465  0.854123  0.447217
			 0.813784  0.528165  0.242482
			 0.524896  0.692641  0.494705
			 0.665454  0.676626  0.315195
			 0.906784  0.417916  0.055573
			 0.769359  0.618206  0.160962
			 0.935960  0.352041  0.006828
			 0.892178  0.439771 -0.103055
			 0.497419  0.698492  0.514474
			 0.461388  0.647268  0.606765
			 0.340168  0.538392  0.770986
			 0.211946  0.509868  0.833735
			-0.000944  0.348303  0.937381
			-0.149214  0.134788  0.979575
			-0.145467  0.064654  0.987248
			-0.044503  0.104349  0.993545
			-0.187277  0.266840  0.945370
			-0.733097  0.395185  0.553531
			-0.952269  0.270636  0.141207
			-0.957000  0.161501 -0.240975
			-0.906763  0.033735 -0.420289
			-0.846841  0.071914 -0.526962
			 0.999025  0.044105 -0.001789
			-0.604811  0.041779 -0.795273
			 0.442385 -0.249163 -0.861518
			 0.961481 -0.230811  0.149264
			 0.969773 -0.240454  0.041507
			-0.748063  0.089104 -0.657619
			-0.624331  0.153269 -0.765976
			-0.849694 -0.041728 -0.525623
			 0.071864 -0.026086 -0.997073
			 0.019065 -0.095863 -0.995212
			-0.607054 -0.163559 -0.777646
			-0.361870 -0.064252 -0.930012
			-0.084899 -0.035987 -0.995740
			 0.441687  0.078507 -0.893728
			 0.590024 -0.123956 -0.797813
			 0.956751  0.139902 -0.255061
			 0.887479  0.162088 -0.431402
			 0.737069  0.200283 -0.645458
			 0.521388  0.162911 -0.837625
			-0.205312  0.816279  0.539940
			-0.699369  0.423023  0.576137
			-0.971773 -0.203239  0.119793
			-0.557014 -0.774694 -0.299306
			-0.351859 -0.303829 -0.885372
			-0.085767  0.005873 -0.996298
			-0.559387 -0.208713 -0.802200
			 0.819628  0.254530 -0.513249
			 0.976265 -0.123349 -0.178022
			 0.973790  0.215647 -0.072313
			 0.939134  0.340133 -0.048341
			 0.861066  0.466676 -0.201938
			 0.406577 -0.744853 -0.529046
			-0.749522 -0.619695 -0.232796
			 0.026866 -0.878275 -0.477400
			 0.413844  0.903834  0.108704
			 0.475313  0.879484  0.024189
			 0.787398  0.087397 -0.610218
			 0.667924 -0.521239 -0.531214
			 0.506526  0.858636 -0.078578
			 0.260985  0.127155 -0.956932
			 0.087883  0.036640 -0.995457
			-0.106917 -0.111225 -0.988027
			-0.381489 -0.235207 -0.893949
			-0.942606 -0.088212 -0.322045
			-0.991172 -0.125233  0.043521
			-0.924261 -0.147918 -0.351940
			-0.749062 -0.212327 -0.627553
			-0.219334  0.452031  0.864616
			-0.264956  0.447487  0.854140
			-0.276926  0.385938  0.879979
			 0.719318  0.382045  0.580192
			 0.430220  0.537824  0.725021
			 0.991764 -0.040027 -0.121663
			-0.543349  0.122402  0.830536
			-0.801448 -0.169335  0.573591
			-0.898099 -0.395371  0.192616
			 0.776037 -0.193502 -0.600270
			 0.903374 -0.165947 -0.395445
			 0.301017 -0.150782 -0.941623
			 0.417156 -0.168970 -0.892989
			 0.293558 -0.136096 -0.946204
			 0.888057 -0.206856 -0.410567
			 0.448657  0.884235  0.129750
			 0.758515  0.562750  0.328586
			 0.869980  0.458436  0.181580
			 0.951309  0.210528 -0.225144
			 0.964387  0.112128 -0.239550
			 0.969408  0.243691 -0.029380
			 0.857566  0.097304 -0.505086
			 0.555871  0.778137 -0.292422
			 0.646203  0.643609  0.410110
			 0.722678  0.613594  0.318179
			 0.540013  0.619972  0.569228
			 0.478112  0.642818  0.598494
			 0.242341  0.532024  0.811308
			 0.013549  0.313613  0.949454
			-0.107622  0.002972  0.994188
			-0.120075  0.151450  0.981145
			-0.264933  0.201043  0.943076
			-0.490077  0.326226  0.808332
			-0.881879  0.330959  0.335791
			-0.963319  0.267789 -0.017461
			-0.892416  0.142749 -0.428038
			-0.912823  0.263813 -0.311699
			-0.825499  0.201351 -0.527265
			-0.764063  0.147474 -0.628059
			 0.948153 -0.246605 -0.200479
			 0.071420 -0.149830 -0.986129
			 0.932224 -0.348270  0.098319
			 0.910312 -0.412252  0.037142
			 0.821592 -0.542208 -0.176063
			-0.670864  0.209837 -0.711273
			 0.371621 -0.630916 -0.681060
			-0.567133  0.279156 -0.774876
			-0.527270 -0.195513 -0.826898
			-0.185546 -0.142761 -0.972210
			 0.099262 -0.121158 -0.987658
			 0.440180 -0.098974 -0.892438
			 0.370422 -0.023201 -0.928574
			 0.898457 -0.164931 -0.406906
			 0.830061 -0.112053 -0.546300
			 0.665730 -0.069633 -0.742937
			 0.457369 -0.006874 -0.889250
			-0.182890  0.877080  0.444165
			-0.474984  0.667118  0.573884
			-0.781533  0.429281  0.452685
			-0.981682 -0.184841  0.046205
			-0.532234 -0.375486 -0.758773
			-0.057335 -0.492761 -0.868274
			 0.511060 -0.516756 -0.686863
			 0.320753 -0.756700 -0.569669
			-0.954647  0.189774  0.229425
			-0.884927  0.277159  0.374281
			-0.692275 -0.646303 -0.321011
			-0.075371 -0.781726 -0.619051
			-0.058093  0.933773  0.353119
			 0.711635  0.119851 -0.692251
			 0.402990  0.912413 -0.071425
			 0.006571  0.961768  0.273786
			 0.275578 -0.206953 -0.938737
			 0.099011 -0.326027 -0.940161
			-0.087327 -0.455293 -0.886049
			-0.587745 -0.382591 -0.712867
			-0.309097 -0.499265 -0.809441
			-0.752094 -0.203426 -0.626875
			-0.927315 -0.327075 -0.181958
			-0.835779 -0.209246 -0.507632
			-0.487355 -0.259130 -0.833869
			 0.238679  0.636288  0.733601
			-0.291060  0.518604  0.803949
			-0.316133  0.409362  0.855852
			-0.363142  0.251633  0.897111
			-0.583288 -0.063593  0.809772
			 0.966432  0.250152  0.058595
			 0.678060  0.547701  0.490163
			 0.889292 -0.230894 -0.394775
			-0.741594 -0.285082  0.607261
			-0.832032 -0.478379  0.280848
			-0.870632 -0.479205 -0.111192
			 0.880919 -0.213931 -0.422155
			 0.356445 -0.144979 -0.922999
			 0.629102 -0.203176 -0.750300
			 0.854002  0.466378  0.230592
			 0.921591  0.229772  0.312850
			 0.986628  0.133801  0.093076
			 0.874724  0.401947  0.270732
			 0.505334 -0.778518 -0.372220
			 0.812904  0.439251  0.382420
			 0.742989  0.475513  0.471015
			 0.701983  0.567971  0.429684
			 0.803155  0.420835  0.421710
			 0.523351  0.599538  0.605522
			 0.649472  0.494956  0.577239
			 0.744426  0.394203  0.538919
			 0.381597  0.543423  0.747713
			 0.171515  0.365736  0.914779
			-0.030407  0.094786  0.995033
			-0.309491  0.189758  0.931776
			-0.722649  0.347955  0.597248
			-0.939682  0.341256  0.023272
			-0.865995  0.286985 -0.409502
			-0.911680  0.273826 -0.306363
			-0.788065  0.350067 -0.506366
			-0.727664  0.283743 -0.624495
			 0.727861 -0.625010 -0.282101
			-0.621323  0.339101 -0.706377
			-0.449112  0.346299 -0.823636
			 0.641799 -0.665022 -0.381891
			 0.511080 -0.749274 -0.421171
			 0.091688 -0.570287 -0.816313
			-0.506100  0.387335 -0.770607
			-0.202074 -0.260592 -0.944064
			 0.095304 -0.186285 -0.977862
			 0.143847 -0.087848 -0.985693
			 0.252116 -0.072523 -0.964976
			 0.457787 -0.731398 -0.505458
			-0.549857  0.663892  0.506858
			-0.364992  0.809148  0.460500
			-0.727822 -0.445214 -0.521594
			-0.449284 -0.628988 -0.634443
			 0.007835 -0.774454 -0.632582
			 0.492166 -0.434645 -0.754226
			 0.146221 -0.746981 -0.648567
			-0.568095  0.678878  0.465179
			-0.997471 -0.064419 -0.030046
			-0.773756  0.497553  0.392100
			-0.875731  0.399091 -0.271700
			-0.666689  0.459603 -0.586764
			 0.200361 -0.621681 -0.757211
			-0.330677  0.812711  0.479743
			 0.777609  0.131989 -0.614738
			 0.610747  0.745337 -0.267321
			 0.531842  0.841618  0.093929
			 0.108631  0.943000  0.314564
			-0.230679  0.823391  0.518473
			-0.079779 -0.232881 -0.969227
			-0.182853 -0.473861 -0.861406
			-0.543805 -0.512468 -0.664570
			-0.299841 -0.570120 -0.764891
			-0.620351 -0.194776 -0.759755
			-0.602790 -0.252372 -0.756936
			-0.779283 -0.367098 -0.507895
			-0.102636 -0.237379 -0.965980
			-0.359222 -0.244423 -0.900676
			-0.139385  0.823988  0.549195
			 0.917264  0.346757 -0.195926
			-0.369234  0.419431  0.829303
			-0.389985  0.123725  0.912471
			-0.544932 -0.293165  0.785559
			-0.694915 -0.546713  0.467117
			 0.833041 -0.269661 -0.483037
			 0.736316 -0.303682 -0.604662
			-0.742619 -0.655300  0.138197
			-0.711911 -0.685261 -0.153627
			-0.686153 -0.586741 -0.430034
			 0.186110 -0.179291 -0.966032
			 0.438431 -0.206237 -0.874783
			 0.968955  0.027790  0.245670
			 0.797087  0.006069  0.603834
			 0.787874  0.245399  0.564832
			-0.610133 -0.675962 -0.413295
			 0.772566 -0.633895  0.036318
			-0.742732 -0.660357 -0.110806
			-0.770208 -0.629280 -0.103856
			-0.328302 -0.894889 -0.302311
			 0.400912 -0.803678 -0.439740
			 0.802628  0.280994  0.526147
			 0.670234  0.258637  0.695624
			 0.585530  0.309067  0.749421
			 0.748103  0.228628  0.622954
			 0.502104  0.631773  0.590555
			 0.608332  0.555200  0.567173
			 0.615985  0.313229  0.722807
			 0.574292  0.446983  0.685853
			 0.661839  0.107561  0.741889
			 0.444058  0.608818  0.657384
			 0.313661  0.467911  0.826242
			 0.142030  0.256375  0.956085
			 0.000103  0.083508  0.996507
			-0.139098  0.029423  0.989841
			-0.743384  0.383381  0.548086
			-0.423594  0.241797  0.872985
			-0.926961  0.375075 -0.007934
			-0.843389  0.297517 -0.447413
			-0.942716  0.305359 -0.134323
			-0.874263  0.269201 -0.403973
			-0.751941  0.372238 -0.544080
			-0.683856  0.410875 -0.602928
			-0.586533  0.451221 -0.672591
			-0.297272  0.386697 -0.872980
			-0.373592  0.433917 -0.819844
			 0.209430 -0.549255 -0.808986
			 0.375581 -0.787963 -0.487907
			-0.480267  0.478207 -0.735297
			 0.093062 -0.234067 -0.967756
			-0.703034 -0.535588 -0.467856
			-0.008891 -0.520493 -0.853819
			-0.002236 -0.728121 -0.685445
			 0.520551 -0.463593 -0.717013
			 0.365655 -0.589423 -0.720331
			-0.565064  0.643362  0.516515
			-0.782209  0.517686  0.346627
			-0.793195  0.578182  0.191173
			 0.206048 -0.255762 -0.944527
			-0.137667  0.411158 -0.901109
			-0.732960  0.631432  0.253106
			-0.597067  0.801444 -0.034603
			-0.716664  0.616349  0.326353
			-0.388551  0.729947  0.562322
			 0.783116  0.566721 -0.256039
			 0.785520 -0.038245 -0.617654
			 0.272163  0.725888  0.631676
			 0.734115  0.649918  0.196677
			-0.179335  0.527885  0.830166
			-0.025510 -0.458641 -0.888255
			-0.194311 -0.497767 -0.845264
			-0.282963 -0.645507 -0.709403
			-0.477856 -0.629351 -0.612838
			-0.366338 -0.282403 -0.886592
			-0.513299 -0.493052 -0.702441
			-0.349673 -0.348370 -0.869694
			 0.199398 -0.186777 -0.961954
			-0.097570 -0.234442 -0.967221
			-0.339058  0.257131  0.904944
			-0.502564  0.249206  0.827844
			-0.618912  0.326112  0.714562
			-0.655239  0.523133  0.544972
			 0.546778  0.788856 -0.280606
			 0.665338  0.519779 -0.535868
			 0.159755  0.945227 -0.284649
			 0.774227  0.214873 -0.595317
			 0.859996 -0.048724 -0.507970
			-0.335282  0.208805  0.918687
			-0.465386  0.024584  0.884766
			-0.520976 -0.345984  0.780307
			-0.591537 -0.643188  0.486203
			-0.677422 -0.714904  0.173237
			 0.686933 -0.312236 -0.656225
			 0.830276 -0.184495 -0.525931
			 0.717520 -0.221580 -0.660354
			 0.465172 -0.253839 -0.848045
			-0.612061 -0.780935 -0.124586
			-0.520892 -0.723631 -0.452802
			 0.505890  0.038957  0.861718
			 0.570805 -0.188845  0.799074
			-0.615421 -0.657776 -0.434267
			-0.736308 -0.641842 -0.214220
			 0.635649 -0.323987  0.700702
			 0.415308 -0.623953 -0.661969
			 0.515772 -0.551183 -0.655879
			 0.768247 -0.602308 -0.216843
			 0.817153 -0.560388  0.135002
			-0.841939 -0.538485 -0.034236
			-0.851774 -0.484769 -0.198695
			-0.049394 -0.728506 -0.683256
			 0.416389  0.173699  0.892440
			 0.575898  0.103352  0.810962
			 0.342838  0.130418  0.930297
			 0.538970  0.564029  0.625606
			 0.474928  0.193850  0.858409
			 0.495938  0.316710  0.808542
			 0.468235  0.436612  0.768196
			 0.418774 -0.008769  0.908048
			 0.368580  0.137747  0.919334
			 0.511977  0.540450  0.667678
			 0.375488  0.370259  0.849657
			 0.149640  0.109055  0.982708
			-0.040661 -0.070075  0.996713
			-0.185935 -0.106389  0.976785
			-0.806186  0.258100  0.532399
			-0.432486  0.001602  0.901639
			-0.790666  0.306920 -0.529762
			-0.929867  0.254189 -0.265961
			-0.969444  0.222792  0.102677
			-0.837326  0.238395 -0.491989
			-0.655239  0.422223 -0.626409
			-0.696002  0.319656 -0.642963
			-0.555786  0.448523 -0.699949
			-0.118408  0.372400 -0.920488
			-0.196587  0.413589 -0.888987
			-0.355221  0.465207 -0.810802
			 0.181935 -0.801848 -0.569157
			 0.221669 -0.845431 -0.485910
			 0.295539 -0.786126 -0.542828
			-0.453117  0.411221 -0.790938
			 0.119173 -0.366865 -0.922609
			 0.283538 -0.517333 -0.807448
			 0.595978 -0.345293 -0.724971
			-0.661151  0.496900  0.562112
			-0.429212  0.491611  0.757691
			-0.696909  0.508687  0.505525
			-0.636465  0.598986  0.485930
			 0.360097 -0.193773 -0.912569
			 0.525791 -0.050214 -0.849131
			-0.632506  0.529198  0.565584
			-0.843766  0.211116  0.493445
			 0.336643  0.717452 -0.609864
			-0.087581  0.922002 -0.377151
			-0.719971  0.613676  0.324104
			-0.811764  0.283523  0.510543
			-0.757075  0.144727  0.637097
			 0.888548  0.446456 -0.105636
			 0.911206  0.052424 -0.408601
			 0.504168  0.451736  0.736036
			 0.084771  0.223316  0.971053
			 0.798996  0.369961  0.474061
			-0.189459  0.127191  0.973616
			 0.063908 -0.863366 -0.500515
			-0.402872 -0.737316 -0.542272
			-0.089674 -0.889777 -0.447500
			-0.105644 -0.273054 -0.956180
			-0.403401 -0.556981 -0.725975
			-0.228395 -0.352427 -0.907541
			 0.543168 -0.265734 -0.796464
			 0.264298 -0.240009 -0.934100
			-0.412023  0.198327  0.889327
			-0.328782  0.086812  0.940407
			-0.575289  0.232483  0.784216
			-0.548780  0.225391  0.805009
			-0.712086  0.224249  0.665316
			-0.661183  0.329880  0.673808
			-0.740927 -0.184447  0.645761
			 0.684437  0.373246 -0.626286
			 0.733456  0.198075 -0.650237
			 0.699575  0.203964 -0.684831
			 0.391544  0.636031 -0.664949
			 0.442611  0.696680 -0.564564
			 0.472270  0.519792 -0.711883
			 0.798483  0.186679 -0.572343
			 0.749514  0.049674 -0.660123
			-0.445546 -0.207220  0.870947
			-0.554079 -0.550728  0.624256
			-0.602681 -0.762579  0.235049
			-0.686821 -0.721488 -0.087932
			 0.527083 -0.190187 -0.828259
			-0.586165 -0.666887 -0.460079
			 0.375949 -0.009705  0.926589
			 0.756945 -0.220060  0.615312
			-0.492478 -0.774037 -0.397910
			-0.596348 -0.771825 -0.220578
			 0.200166 -0.101684 -0.974471
			 0.510765 -0.448288 -0.733592
			 0.740318 -0.670163 -0.053019
			-0.710127 -0.702410 -0.048361
			-0.285602 -0.698800 -0.655827
			 0.194026  0.053637  0.979529
			 0.193500 -0.048694  0.979891
			 0.514241  0.510812  0.688932
			 0.291860  0.172619  0.940755
			 0.383178  0.177059  0.906545
			 0.379836  0.306297  0.872873
			 0.325380  0.364097  0.872675
			 0.458426  0.415735  0.785500
			 0.165094  0.244175  0.955574
			 0.582863  0.483638  0.652967
			 0.623640  0.424474  0.656426
			 0.494613  0.231792  0.837634
			 0.243997 -0.012992  0.969689
			 0.034568 -0.088712  0.995457
			-0.069658 -0.217438  0.973585
			-0.336835 -0.264381  0.903684
			-0.689685 -0.011623  0.724017
			-0.968879  0.147931  0.198470
			-0.740767  0.259898 -0.619449
			-0.934093  0.112129 -0.338965
			-0.784453  0.099901 -0.612090
			-0.576816  0.302000 -0.758999
			-0.639982  0.222460 -0.735483
			 0.059474  0.319013 -0.945882
			-0.185035  0.403470 -0.896088
			 0.036889  0.245511 -0.968692
			-0.242119  0.288829 -0.926259
			-0.187931 -0.925510 -0.328806
			-0.199109 -0.951737 -0.233566
			-0.280389 -0.954617 -0.100441
			-0.268648 -0.957907  0.101208
			 0.005573 -0.614082 -0.789223
			 0.185815  0.070316 -0.980066
			-0.407198  0.194600 -0.892368
			 0.374410 -0.523925 -0.765062
			 0.102003 -0.130481 -0.986190
			 0.577061 -0.518561 -0.630948
			 0.755806 -0.241414 -0.608667
			-0.503797  0.343477  0.792598
			-0.461943  0.424926  0.778490
			-0.358455  0.359730  0.861455
			 0.335649  0.122135 -0.934036
			 0.466956  0.580814 -0.666789
			 0.736414  0.393955 -0.549994
			 0.665599  0.487406 -0.565167
			-0.370288  0.064101  0.926703
			-0.681027 -0.487382  0.546498
			-0.624405 -0.612412  0.484839
			-0.399302 -0.676758  0.618511
			 0.965188  0.216919  0.146143
			 0.993566 -0.023357 -0.110819
			 0.279525  0.089081  0.955997
			 0.756996  0.062346  0.650439
			-0.194569  0.135051  0.971547
			 0.165894 -0.227686 -0.959499
			-0.437804 -0.513708 -0.737856
			 0.078852 -0.255848 -0.963496
			-0.237279 -0.394916 -0.887547
			-0.465130 -0.015497  0.885107
			-0.381960 -0.333163  0.862038
			-0.570554 -0.070536  0.818226
			-0.656550  0.105095  0.746925
			-0.634185 -0.221265  0.740845
			-0.553596 -0.575998  0.601463
			-0.516287 -0.516124  0.683420
			 0.662573  0.221332 -0.715548
			 0.798693 -0.061857 -0.598550
			 0.669722 -0.226806 -0.707129
			 0.581231  0.288723 -0.760796
			 0.743163  0.213924 -0.633991
			 0.760195  0.191592 -0.620803
			 0.508842  0.728753 -0.458256
			 0.615123  0.564302 -0.550625
			 0.711565  0.371728 -0.596233
			 0.613920  0.376822 -0.693619
			 0.784007  0.225347 -0.578404
			 0.814665  0.196677 -0.545563
			 0.445437 -0.056612 -0.893522