<?xml version="1.0"?>
<VTKFile type="PolyData" version="0.1" byte_order="LittleEndian" compressor="vtkZLibDataCompressor">
	<PolyData>
		<Piece NumberOfPoints="2203" NumberOfVerts="0" NumberOfLines="0" NumberOfStrips="0" NumberOfPolys="4407">
		<PointData Normals="Normals">
		<DataArray type="Float32" Name="Normals" NumberOfComponents="3" format="ascii">
			-0.177357  0.115333 -0.977365
			-0.211730  0.346452 -0.913860
			-0.194255  0.247358 -0.949252
			-0.258515  0.005642 -0.965991
			-0.228013  0.228845 -0.946383
			-0.520914  0.062844 -0.851293
			-0.143688  0.092441 -0.985296
			-0.065761  0.107274 -0.992052
			-0.420085  0.183917 -0.888653
			-0.634035  0.234365 -0.736935
			-0.036655  0.263314 -0.964014
			-0.174187  0.051161 -0.983383
			-0.490193 -0.293600 -0.820676
			-0.386293 -0.036930 -0.921637
			 0.295366 -0.065500 -0.953136
			-0.272185  0.038127 -0.961489
			-0.205566 -0.086966 -0.974772
			-0.230627 -0.027134 -0.972664
			-0.869132  0.392946 -0.300339
			-0.780375  0.080325 -0.620131
			-0.102633  0.136379 -0.985326
			-0.242696  0.040001 -0.969277
			-0.469126  0.124734 -0.874278
			-0.864162  0.396765 -0.309517
			-0.117417  0.021651 -0.992847
			 0.264877 -0.324671 -0.907981
			-0.183098 -0.031074 -0.982603
			-0.095344  0.044544 -0.994447
			-0.623497 -0.073884 -0.778327
			-0.637635 -0.556890 -0.532255
			 0.426038 -0.854947  0.295900
			 0.651272 -0.469152  0.596441
			-0.387048 -0.020293 -0.921836
			-0.395031  0.114459 -0.911509
			-0.339434 -0.127512 -0.931947
			-0.170967 -0.272468 -0.946854
			-0.195001 -0.163543 -0.967072
			-0.337429  0.065836 -0.939046
			-0.974918  0.204949 -0.086780
			-0.842447  0.510685  0.171708
			-0.221746  0.040737 -0.974253
			 0.002145 -0.002790 -0.999994
			-0.178513 -0.056014 -0.982342
			-0.281479  0.057353 -0.957852
			-0.957946 -0.028323 -0.285548
			-0.925774  0.195355  0.323696
			-0.134055 -0.205667 -0.969397
			 0.240745 -0.328879 -0.913171
			-0.110410  0.116271 -0.987062
			-0.244329  0.005807 -0.969675
			 0.460810 -0.175529 -0.869968
			-0.838345 -0.028353 -0.544403
			-0.643787  0.091970 -0.759658
			-0.956471 -0.261301  0.129942
			 0.718003 -0.682751  0.135365
			-0.990463  0.065009 -0.121481
			 0.760581 -0.648688 -0.026849
			 0.534367 -0.726713 -0.431672
			 0.638156 -0.732777 -0.236209
			-0.415279 -0.002679 -0.909690
			-0.410129  0.021783 -0.911767
			-0.526939  0.003249 -0.849897
			-0.416683  0.156020 -0.895563
			-0.406718  0.221120 -0.886390
			-0.066769 -0.254675 -0.964719
			-0.247193 -0.156213 -0.956291
			-0.352327  0.171458 -0.920037
			-0.922751  0.279129  0.265741
			-0.726723  0.379538  0.572560
			-0.684139  0.448466  0.575180
			-0.266454  0.082481 -0.960312
			-0.128050 -0.015282 -0.991650
			 0.080218 -0.056001 -0.995203
			-0.496664 -0.543539 -0.676675
			-0.296364  0.133136 -0.945750
			-0.984941  0.013774  0.172342
			-0.932951 -0.338155  0.123503
			-0.764415 -0.126785  0.632135
			-0.719136 -0.269936  0.640295
			-0.843737 -0.192514  0.501045
			-0.941636  0.014736  0.336309
			-0.391982  0.003929 -0.919965
			 0.223581 -0.805770 -0.548404
			-0.227682 -0.584894 -0.778498
			 0.508040 -0.679104 -0.529824
			 0.631382 -0.717641 -0.293853
			-0.248179  0.161857 -0.955097
			-0.034442  0.196829 -0.979833
			 0.330508  0.002142 -0.943801
			-0.320621  0.044204 -0.946175
			 0.776078 -0.322975 -0.541655
			 0.930632 -0.216185 -0.295276
			 0.807437 -0.588869 -0.035757
			-0.868413  0.135359 -0.477008
			-0.684754  0.081329 -0.724222
			-0.799189  0.125992  0.587727
			-0.935279  0.172920  0.308790
			-0.947193  0.251271  0.199219
			-0.969035  0.182412 -0.166428
			-0.344866  0.086973  0.934614
			-0.421480 -0.166848  0.891357
			 0.287488  0.509936 -0.810750
			-0.488798 -0.001489 -0.872396
			-0.481725  0.069514 -0.873561
			 0.000000  0.000000  0.000000
			-0.614191  0.051873 -0.787451
			-0.688940  0.192530 -0.698780
			-0.579139  0.333980 -0.743677
			-0.665151  0.318228 -0.675504
			-0.129724  0.512467 -0.848852
			-0.244257  0.436048 -0.866141
			-0.319738  0.415845 -0.851376
			-0.284247  0.312770 -0.906299
			-0.587812  0.164795  0.792035
			-0.285635  0.208848 -0.935305
			-0.079977  0.110651 -0.990636
			 0.183515 -0.021891 -0.982773
			-0.778619 -0.586543 -0.222980
			-0.166689 -0.399091 -0.901633
			-0.832216 -0.466672  0.299388
			-0.252333  0.344099 -0.904392
			-0.916595 -0.146460  0.372025
			-0.662873 -0.175822  0.727795
			-0.515401 -0.304103  0.801176
			-0.516756 -0.437913  0.735660
			-0.466212 -0.413674  0.781998
			-0.219210 -0.540323  0.812402
			-0.731976 -0.218601  0.645309
			-0.855719 -0.148028  0.495814
			-0.535930 -0.036880 -0.843456
			-0.445895 -0.368997 -0.815487
			 0.002540 -0.986973  0.160864
			 0.440478 -0.897567 -0.018787
			 0.764498 -0.577530  0.286358
			 0.683310 -0.394654  0.614276
			 0.475979 -0.502322  0.721884
			-0.322291  0.137968 -0.936533
			-0.201742  0.234067 -0.951059
			 0.562259  0.065265 -0.824382
			 0.164374  0.189347 -0.968054
			 0.896880 -0.234049 -0.375269
			-0.444480  0.135708 -0.885449
			 0.870196 -0.488825  0.061722
			 0.816258 -0.346582  0.462173
			 0.755400 -0.565182  0.331572
			-0.889257  0.202305 -0.410238
			-0.728905  0.131719 -0.671824
			-0.476727  0.306606  0.823847
			-0.748070  0.183221  0.637825
			-0.761893  0.208771  0.613134
			-0.944513  0.304996 -0.121957
			-0.924613  0.313685  0.216083
			-0.768341  0.297581  0.566654
			-0.294514  0.249281  0.922562
			-0.660531 -0.197671  0.724310
			-0.530519 -0.140112  0.836013
			-0.555338  0.826469  0.092461
			 0.813196  0.481081  0.327525
			-0.772753 -0.053526 -0.632445
			-0.759988  0.253193 -0.598591
			-0.442137  0.530901 -0.722952
			-0.665146  0.399008 -0.631168
			-0.215488  0.659748 -0.719929
			 0.344996  0.708426 -0.615719
			 0.463499  0.641312 -0.611463
			 0.370218  0.668157 -0.645373
			 0.003444  0.666266 -0.745706
			-0.133677  0.573885 -0.807952
			-0.095758  0.536613 -0.838378
			-0.269999  0.347730 -0.897878
			-0.192531  0.146141 -0.970348
			-0.015395  0.070167 -0.997416
			 0.083827  0.129300 -0.988056
			-0.365766  0.058620 -0.928859
			-0.998422 -0.045291 -0.033206
			-0.973667  0.014941  0.227486
			-0.880341 -0.173768  0.441367
			-0.102984  0.489561 -0.865866
			-0.559306 -0.179592  0.809273
			-0.269766 -0.244069  0.931481
			 0.041006 -0.501612  0.864120
			 0.016961 -0.163613  0.986379
			 0.831788 -0.369846  0.413937
			-0.618154 -0.121958  0.776539
			 0.580030 -0.405609  0.706433
			 0.888444 -0.158525  0.430740
			-0.770427 -0.113647  0.627317
			-0.685049 -0.062740  0.725791
			-0.841755 -0.077308  0.534296
			-0.708267 -0.517268 -0.480409
			-0.536933 -0.661551 -0.523501
			-0.134691 -0.260914  0.955920
			-0.201404 -0.581032  0.788567
			 0.087753 -0.868447  0.487955
			-0.226844 -0.973805 -0.015687
			 0.667998 -0.070668  0.740800
			 0.548115 -0.271390  0.791149
			 0.541275 -0.094917  0.835471
			 0.377283 -0.226441  0.897988
			 0.223375 -0.355978  0.907405
			-0.340004  0.262854 -0.902942
			-0.100492  0.250445 -0.962901
			 0.318410  0.198925 -0.926846
			 0.808477 -0.010632 -0.588431
			 0.972836 -0.149311 -0.176905
			 0.896270 -0.335956  0.289540
			-0.660206  0.341462 -0.668978
			-0.449900  0.401093 -0.797944
			 0.819012 -0.454180  0.350628
			 0.905394 -0.113322  0.409170
			 0.770345  0.185747  0.609973
			 0.767809 -0.458938  0.447041
			 0.603203 -0.627285  0.492605
			-0.901272  0.303506 -0.309181
			-0.490205  0.161711  0.856475
			-0.206547  0.242474  0.947916
			-0.491342  0.152109  0.857581
			-0.957219  0.277028  0.083589
			-0.814587  0.205402  0.542455
			-0.522357  0.134036  0.842127
			-0.242399  0.113639  0.963498
			-0.624037 -0.376902  0.684487
			-0.440040 -0.398132  0.804895
			-0.485787 -0.409890  0.772011
			-0.399083 -0.105049  0.910877
			-0.626827  0.752786  0.201003
			 0.876074  0.201130  0.438225
			 0.820770  0.255928  0.510722
			 0.986638  0.088249  0.136955
			 0.809967  0.087627  0.579892
			 0.973986  0.208347  0.089126
			 0.956134  0.074685  0.283250
			 0.844101  0.021672  0.535745
			-0.807214  0.116327 -0.578683
			-0.508300  0.543076 -0.668356
			-0.169290  0.744653 -0.645626
			 0.400917  0.773743 -0.490497
			-0.392806  0.912957 -0.110516
			-0.392806  0.912957 -0.110516
			 0.465024  0.758281 -0.456906
			 0.630153  0.650042 -0.424680
			 0.632343  0.711572 -0.306282
			 0.735831  0.613225 -0.287241
			 0.771616  0.545671 -0.326882
			 0.197742  0.746745 -0.635035
			 0.198356  0.697131 -0.688958
			 0.179714  0.628288 -0.756939
			-0.173232  0.319122 -0.931747
			-0.232423  0.178295 -0.956133
			-0.107373  0.116435 -0.987377
			 0.000289  0.128468 -0.991714
			-0.553870  0.417375 -0.720434
			-0.930551  0.334858 -0.148139
			-0.890512 -0.045052  0.452724
			-0.975264  0.138124  0.172576
			 0.043232  0.437912 -0.897977
			 0.155848 -0.171469  0.972785
			 0.814353  0.002041  0.580366
			 0.985198  0.145804 -0.090139
			 0.991951  0.005864 -0.126483
			 0.996151  0.046029 -0.074591
			 0.527284 -0.210684  0.823155
			-0.640468 -0.011909  0.767893
			 0.986207 -0.036246 -0.161497
			 0.983845  0.155635  0.088470
			-0.707381 -0.041966  0.705586
			-0.825757 -0.006718  0.563986
			-0.871696 -0.033768 -0.488881
			-0.776395 -0.593820 -0.211160
			-0.468030 -0.816434 -0.338207
			-0.617838 -0.753446 -0.224934
			-0.158538 -0.481245  0.862131
			-0.469156 -0.277874  0.838260
			-0.212703 -0.520685  0.826828
			 0.349404 -0.622622  0.700185
			 0.364630 -0.741480  0.563252
			-0.129186 -0.981843  0.138906
			 0.558214 -0.701385  0.443234
			 0.662573  0.033667  0.748241
			 0.583158 -0.106545  0.805341
			 0.452020 -0.383080  0.805561
			 0.464159 -0.368441  0.805485
			-0.026375 -0.291581  0.956182
			 0.224792 -0.223484  0.948432
			-0.343505  0.375178 -0.860956
			-0.261645  0.141248 -0.954773
			-0.037666  0.178884 -0.983149
			 0.498561  0.074806 -0.863621
			 0.909451 -0.114135 -0.399841
			 0.964214 -0.256841  0.065750
			 0.830970 -0.319311  0.455553
			 0.858521 -0.296989  0.418019
			-0.736996  0.402741 -0.542804
			-0.875657  0.345191 -0.337740
			-0.499242  0.474221 -0.725170
			 0.811463  0.360544  0.459929
			 0.841741  0.430634  0.325619
			 0.821135 -0.054145  0.568160
			 0.782635  0.199214  0.589742
			 0.675196 -0.312828  0.668019
			 0.062406 -0.633498  0.771223
			 0.500539 -0.365289  0.784872
			 0.015595 -0.449865  0.892960
			-0.971018  0.235461  0.041020
			-0.206892  0.111357  0.972006
			-0.057790  0.037738  0.997615
			-0.203833 -0.031717  0.978492
			-0.893652  0.038858  0.447076
			-0.660180 -0.035737  0.750257
			-0.482895 -0.011055  0.875608
			-0.252234  0.006286  0.967646
			 0.280896 -0.120673  0.952122
			 0.950055 -0.196362  0.242564
			 0.893642  0.334390  0.299312
			 0.534860  0.098088  0.839228
			 0.859057  0.079590  0.505654
			 0.812512  0.091694  0.575688
			 0.900442  0.156780  0.405740
			 0.688456  0.002801  0.725272
			 0.956787  0.202927  0.208279
			 0.884352  0.098332  0.456347
			 0.751180  0.005803  0.660072
			-0.473019  0.601359 -0.643910
			 0.244810  0.875645 -0.416309
			 0.499017  0.798184 -0.337467
			 0.801173  0.552946 -0.228849
			 0.506867  0.721229 -0.472138
			 0.649344  0.701132 -0.294561
			 0.755764  0.638914 -0.143562
			 0.897992  0.437484 -0.047097
			 0.928880  0.370380 -0.001163
			 0.884416  0.452969  0.112370
			 0.479103  0.727290 -0.491436
			 0.322638  0.574050 -0.752576
			 0.443227  0.678933 -0.585321
			-0.016243  0.383789 -0.923278
			-0.160739  0.169168 -0.972391
			-0.155707  0.099466 -0.982783
			-0.055591  0.141351 -0.988398
			-0.201032  0.299042 -0.932824
			-0.745627  0.401561 -0.531779
			-0.903366 -0.000189  0.428871
			-0.843220  0.035056  0.536424
			-0.957700  0.133325  0.255021
			-0.958573  0.257059 -0.122716
			 0.194423  0.545429 -0.815295
			 0.997961  0.063639 -0.004905
			 0.454974 -0.273160  0.847574
			 0.964358 -0.205987 -0.166080
			-0.598211 -0.000547  0.801339
			 0.973819 -0.219577 -0.058846
			-0.743603  0.049179  0.666810
			-0.620149  0.111576  0.776509
			-0.548374  0.596116 -0.586457
			-0.958092 -0.051895 -0.281722
			-0.765228 -0.639659  0.072547
			-0.542887 -0.839618 -0.017762
			-0.549380 -0.833889 -0.053017
			-0.432124 -0.311052  0.846473
			-0.462191 -0.499653  0.732616
			 0.743391 -0.295816  0.599886
			 0.138230 -0.352158  0.925677
			 0.897705 -0.231915  0.374621
			 0.847008 -0.292348  0.443971
			-0.016200 -0.962285  0.271562
			 0.877525  0.035914  0.478184
			 0.916215  0.222717  0.333089
			 0.540067 -0.718189  0.438785
			 0.389057 -0.161049  0.907027
			 0.734284  0.226201  0.640047
			 0.374889 -0.012389  0.926987
			 0.107760 -0.028064  0.993781
			 0.087378 -0.160264  0.983199
			-0.169082 -0.228804  0.958676
			-0.316350 -0.222340  0.922219
			 0.265596 -0.104084  0.958449
			-0.321370  0.316353 -0.892548
			-0.239977  0.509373 -0.826408
			 0.017692  0.318839 -0.947644
			 0.626819  0.177435 -0.758692
			 0.952409 -0.037312 -0.302530
			 0.963314 -0.195298  0.184077
			 0.887493 -0.215874  0.407131
			 0.751581 -0.181493  0.634182
			 0.630382 -0.216432  0.745503
			 0.867292 -0.215130  0.448914
			-0.991856  0.115480 -0.053717
			-0.958524  0.226474 -0.173036
			-0.874062  0.276804 -0.399244
			-0.982309  0.079240  0.169676
			-0.345135  0.465396 -0.815039
			-0.643157  0.255721 -0.721773
			-0.877469  0.026558 -0.478898
			 0.343172 -0.214308  0.914497
			 0.511972 -0.152572  0.845344
			-0.843889 -0.078486  0.530746
			 0.081465 -0.062756  0.994699
			 0.030010 -0.133435  0.990603
			-0.596646 -0.205065  0.775862
			-0.352044 -0.106852  0.929864
			-0.075082 -0.075680  0.994301
			 0.448238  0.052962  0.892344
			 0.599578 -0.142732  0.787486
			 0.888087  0.162901  0.429843
			 0.956159  0.148836  0.252204
			 0.738929  0.189922  0.646462
			 0.525776  0.140999  0.838856
			-0.225976  0.832124 -0.506463
			 0.970061  0.231832  0.072362
			 0.430279  0.897199 -0.099470
			 0.932787  0.356437  0.053479
			 0.744462  0.589702 -0.313094
			 0.859261  0.482059 -0.171142
			 0.964190  0.121831  0.235575
			 0.964745  0.261404  0.030576
			 0.949080  0.220434  0.225067
			 0.860107  0.094772  0.501233
			 0.819213  0.250795  0.515745
			-0.076754 -0.033897  0.996474
			 0.543378  0.777171  0.317403
			 0.629867  0.671394 -0.390509
			 0.707746  0.639398 -0.300443
			 0.522704  0.651773 -0.549520
			 0.460108  0.674499 -0.577366
			 0.224587  0.567305 -0.792291
			-0.001194  0.349877 -0.936795
			-0.116742  0.038850 -0.992402
			-0.131943  0.186448 -0.973565
			-0.277378  0.231692 -0.932406
			-0.503659  0.347182 -0.791070
			-0.891143  0.326146 -0.315424
			-0.891058  0.108711  0.440678
			-0.760998  0.108310  0.639649
			-0.824383  0.164782  0.541516
			-0.968115  0.247933  0.035814
			-0.914864  0.233707  0.329248
			 0.954535 -0.235396  0.182899
			 0.083313 -0.185976  0.979016
			 0.937843 -0.325861 -0.119438
			 0.917732 -0.392552 -0.060580
			 0.833492 -0.532281  0.148216
			-0.668265  0.169268  0.724410
			-0.565315  0.238131  0.789754
			 0.389955 -0.649055  0.653194
			-0.712651  0.430900 -0.553582
			-0.968718 -0.217581 -0.119346
			-0.539178 -0.796370  0.274010
			-0.337814 -0.344305  0.875977
			-0.547893 -0.250179  0.798263
			 0.980053 -0.110843  0.164955
			 0.853696  0.475457  0.212470
			 0.425715 -0.756390  0.496630
			-0.735246 -0.642758  0.215117
			 0.048198 -0.895181  0.443089
			 0.457985  0.888942  0.005604
			 0.682700 -0.527926  0.505187
			 0.791107  0.079476  0.606493
			 0.490534  0.864800  0.107229
			 0.395287  0.915291 -0.077395
			 0.267214  0.095596  0.958884
			 0.096254  0.000289  0.995357
			-0.095712 -0.150986  0.983892
			-0.368684 -0.276657  0.887430
			-0.235923  0.480346 -0.844753
			-0.281351  0.474508 -0.834077
			-0.292365  0.413769 -0.862159
			 0.706467  0.418010 -0.571114
			 0.413100  0.573496 -0.707425
			 0.993423 -0.025139  0.111709
			 0.785086 -0.201006  0.585864
			 0.909990 -0.163145  0.381186
			 0.428489 -0.194741  0.882311
			 0.312469 -0.180712  0.932580
			 0.304770 -0.166362  0.937784
			 0.895605 -0.204895  0.394855
			-0.937742 -0.118973  0.326321
			-0.988923 -0.142943 -0.039976
			-0.917974 -0.179406  0.353747
			-0.739051 -0.250844  0.625204
			-0.553182  0.143347 -0.820635
			-0.803235 -0.163015 -0.572922
			-0.892013 -0.405303 -0.200108
			-0.515813 -0.237303  0.823179
			-0.173858 -0.183434  0.967536
			 0.110608 -0.156842  0.981410
			 0.450149 -0.124336  0.884255
			 0.379273 -0.051385  0.923857
			 0.905159 -0.162664  0.392719
			 0.837030 -0.116507  0.534609
			 0.673714 -0.084873  0.734102
			 0.465526 -0.031861  0.884461
			-0.493014  0.679096 -0.543843
			-0.203859  0.889649 -0.408616
			 0.842685  0.491552 -0.219678
			 0.982965  0.156635 -0.096149
			 0.914080  0.259638 -0.311523
			 0.864281  0.429123 -0.262434
			-0.039862 -0.526618  0.849167
			 0.523667 -0.782088  0.337803
			-0.517920 -0.414604  0.748239
			 0.729324  0.507684 -0.458633
			 0.800734  0.469445 -0.372085
			 0.686918  0.597672 -0.413439
			 0.790984  0.452356 -0.411970
			 0.506109  0.632418 -0.586431
			 0.634481  0.529330 -0.563243
			 0.731711  0.429074 -0.529617
			 0.364173  0.579002 -0.729476
			 0.156046  0.403733 -0.901471
			-0.041327  0.132130 -0.990371
			-0.321605  0.219109 -0.921174
			-0.734668  0.356251 -0.577364
			-0.867601  0.254041  0.427472
			-0.727274  0.245305  0.641014
			-0.790022  0.314895  0.526029
			-0.946276  0.323353 -0.002266
			-0.913964  0.243937  0.324291
			 0.742353 -0.620902  0.251779
			-0.621278  0.299574  0.724065
			-0.448174  0.305669  0.840064
			-0.506427  0.347573  0.789129
			 0.657995 -0.666383  0.350679
			 0.529294 -0.754629  0.387792
			 0.110151 -0.599156  0.793019
			-0.793789  0.430818 -0.429295
			-0.978307 -0.202207 -0.045026
			 0.527209 -0.532481  0.662204
			 0.340512 -0.771466  0.537487
			-0.893503  0.273808 -0.355924
			-0.960193  0.179596 -0.213949
			-0.676691 -0.671587  0.301762
			-0.054587 -0.806145  0.589195
			-0.079354  0.945264 -0.316510
			 0.715483  0.107276  0.690345
			 0.385916  0.916764  0.103016
			-0.014521  0.971472 -0.236707
			 0.288096 -0.237221  0.927754
			 0.113883 -0.359711  0.926088
			-0.070408 -0.490454  0.868618
			-0.573700 -0.421040  0.702562
			-0.291978 -0.535817  0.792243
			 0.219622  0.668431 -0.710610
			-0.308365  0.543128 -0.780976
			-0.331795  0.435478 -0.836822
			-0.376123  0.278547 -0.883710
			-0.589328 -0.044055 -0.806692
			 0.960841  0.271163 -0.057058
			 0.662839  0.579261 -0.474449
			 0.897160 -0.228283  0.378142
			 0.888711 -0.212547  0.406222
			 0.639743 -0.219294  0.736641
			 0.367603 -0.173113  0.913729
			-0.742260 -0.241985  0.624894
			-0.919119 -0.351961  0.177044
			-0.826904 -0.244887  0.506222
			-0.474613 -0.300343  0.827367
			-0.741466 -0.276191 -0.611512
			-0.825164 -0.483563 -0.292013
			-0.860155 -0.500131  0.100017
			-0.188363 -0.300406  0.935027
			 0.107821 -0.221613  0.969155
			 0.154522 -0.122611  0.980352
			 0.262280 -0.104379  0.959330
			 0.476438 -0.741039  0.473147
			-0.567195  0.671838 -0.476365
			-0.384756  0.818823 -0.426017
			 0.965951  0.056206 -0.252547
			 0.791268  0.044815 -0.609825
			 0.777788  0.282251 -0.561587
			-0.714283 -0.479048  0.510208
			-0.431226 -0.661489  0.613577
			-0.593152 -0.703130  0.392147
			 0.784309 -0.616730 -0.067109
			-0.728787 -0.678586  0.091603
			-0.756921 -0.647812  0.086082
			-0.308168 -0.912071  0.270477
			 0.420372 -0.811859  0.405181
			 0.792205  0.316625 -0.521690
			 0.658724  0.298163 -0.690783
			 0.572573  0.348937 -0.741892
			 0.737819  0.266935 -0.619974
			 0.484381  0.663632 -0.570059
			 0.592278  0.588325 -0.550527
			 0.559253  0.484075 -0.672984
			 0.603184  0.352677 -0.715394
			 0.652828  0.148829 -0.742742
			 0.426181  0.642112 -0.637230
			 0.296994  0.505224 -0.810274
			 0.128304  0.295472 -0.946697
			-0.148683  0.064492 -0.986780
			-0.010620  0.121519 -0.992532
			-0.755634  0.389357 -0.526705
			-0.436149  0.266609 -0.859473
			-0.844857  0.263558  0.465568
			-0.686130  0.374005  0.623976
			-0.753991  0.336314  0.564262
			-0.933925  0.356198  0.030108
			-0.875574  0.236322  0.421334
			-0.947174  0.281407  0.153855
			-0.588972  0.413565  0.694317
			-0.296698  0.347130  0.889647
			-0.374400  0.394836  0.839005
			-0.482679  0.440219  0.757118
			 0.227392 -0.575549  0.785517
			 0.395184 -0.798497  0.454128
			 0.028583 -0.797761  0.602296
			 0.507347 -0.453392  0.732826
			 0.166553 -0.768203  0.618162
			-0.585338  0.684859 -0.433989
			-0.995723 -0.085121  0.035922
			-0.786779  0.496865 -0.366202
			-0.880761  0.371119  0.294162
			-0.670055  0.423644  0.609551
			 0.219251 -0.646107  0.731078
			-0.350694  0.823794 -0.445396
			 0.780500  0.123662  0.612803
			 0.598646  0.746440  0.290602
			 0.514596  0.854888 -0.066011
			 0.087506  0.956287 -0.279031
			-0.251278  0.837910 -0.484526
			-0.066400 -0.271278  0.960208
			-0.165779 -0.509941  0.844084
			-0.527701 -0.548086  0.648947
			-0.281762 -0.604722  0.744930
			-0.160299  0.841476 -0.515968
			 0.912143  0.356984  0.201387
			-0.384837  0.443479 -0.809461
			-0.400627  0.150816 -0.903744
			-0.546322 -0.273585 -0.791633
			-0.688460 -0.542019 -0.481911
			 0.842478 -0.271494  0.465320
			 0.747544 -0.312033  0.586356
			 0.450312 -0.230859  0.862510
			 0.198362 -0.212387  0.956841
			-0.609500 -0.235831  0.756897
			-0.590856 -0.292921  0.751722
			-0.767368 -0.401492  0.499950
			-0.089195 -0.276097  0.956982
			-0.346183 -0.285683  0.893612
			-0.731048 -0.664015 -0.157014
			-0.697100 -0.704497  0.133176
			-0.670725 -0.616126  0.412936
			 0.106411 -0.269008  0.957242
			 0.567021 -0.146907 -0.810497
			 0.497145  0.081803 -0.863803
			-0.688245 -0.566798  0.452834
			-0.598599 -0.685866  0.413845
			-0.721777 -0.663914  0.195594
			 0.635360 -0.284409 -0.717934
			 0.433323 -0.640510  0.634018
			 0.532302 -0.565599  0.629883
			 0.781695 -0.594933  0.187104
			 0.826563 -0.538643 -0.163270
			-0.831027 -0.555851  0.020603
			-0.029057 -0.754918  0.655175
			-0.840394 -0.508664  0.187080
			 0.404780  0.215835 -0.888577
			 0.566357  0.145574 -0.811202
			 0.331736  0.172594 -0.927450
			 0.522227  0.598016 -0.607993
			 0.482314  0.357071 -0.799921
			 0.452668  0.474776 -0.754771
			 0.463227  0.235817 -0.854290
			 0.410548  0.034179 -0.911198
			 0.357430  0.180004 -0.916429
			 0.495312  0.575536 -0.650711
			 0.360480  0.409773 -0.837938
			 0.138516  0.149455 -0.979018
			-0.048407 -0.032716 -0.998292
			-0.192764 -0.072614 -0.978555
			-0.815856  0.262357 -0.515313
			-0.440660  0.027557 -0.897251
			-0.791575  0.270842  0.547772
			-0.657524  0.385008  0.647635
			-0.696144  0.281102  0.660579
			-0.932136  0.225506  0.283318
			-0.837245  0.202907  0.507789
			-0.974467  0.207448 -0.085907
			-0.557929  0.410429  0.721293
			-0.117165  0.334547  0.935067
			-0.196410  0.375364  0.905828
			-0.356719  0.426804  0.831017
			-0.453731  0.371702  0.809917
			 0.202593 -0.819283  0.536407
			 0.242399 -0.858863  0.451218
			 0.315627 -0.800335  0.509749
			 0.008975 -0.552820  0.833253
			 0.018103 -0.753690  0.656981
			 0.535946 -0.480333  0.694293
			 0.383548 -0.609219  0.694077
			-0.582090  0.651398 -0.486674
			-0.795204  0.515075 -0.319919
			-0.805936  0.569358 -0.162171
			-0.137345  0.373632  0.917353
			 0.219577 -0.287573  0.932249
			-0.747310  0.626110 -0.222518
			-0.731395  0.614161 -0.296424
			-0.612104  0.787641  0.070356
			-0.407710  0.743124 -0.530604
			 0.774325  0.571810  0.271025
			 0.791725 -0.046371  0.609115
			 0.719589  0.671269 -0.177736
			 0.252298  0.754710 -0.605605
			-0.197085  0.555600 -0.807754
			-0.176920 -0.533433  0.827133
			-0.008521 -0.492667  0.870176
			-0.263938 -0.677587  0.686449
			-0.459982 -0.661588  0.592214
			-0.352221  0.284813 -0.891528
			-0.514832  0.270734 -0.813419
			-0.631605  0.340952 -0.696295
			-0.670181  0.530594 -0.518968
			 0.660038  0.511901  0.549825
			 0.533972  0.788154  0.306084
			 0.144052  0.936616  0.319375
			 0.775339  0.207145  0.596608
			 0.865384 -0.051184  0.498489
			-0.473842  0.049226 -0.879233
			-0.347638  0.237131 -0.907148
			-0.521303 -0.326085 -0.788614
			-0.583415 -0.635643 -0.505555
			-0.665034 -0.720942 -0.194863
			 0.698809 -0.323521  0.637966
			 0.727675 -0.232505  0.645315
			 0.838459 -0.188099  0.511473
			 0.477723 -0.276870  0.833741
			 0.211755 -0.219449  0.952367
			-0.352692 -0.323230  0.878140
			-0.497232 -0.529536  0.687278
			-0.334911 -0.388163  0.858583
			-0.084176 -0.273110  0.958293
			-0.595690 -0.797010  0.099647
			-0.502649 -0.750511  0.429043
			 0.367581  0.033109 -0.929402
			 0.755400 -0.181456 -0.629638
			-0.383573 -0.765282  0.516929
			-0.473769 -0.798213  0.372021
			-0.579279 -0.791268  0.195783
			 0.210993 -0.134898  0.968135
			 0.526018 -0.465868  0.711529
			 0.753586 -0.657013  0.021037
			-0.695948 -0.717573  0.027318
			-0.266037 -0.728836  0.630891
			 0.185441 -0.007394 -0.982628
			 0.183992  0.094839 -0.978342
			 0.497954  0.546782 -0.673105
			 0.371383  0.219077 -0.902264
			 0.365851  0.346843 -0.863628
			 0.443107  0.454386 -0.772781
			 0.310293  0.403512 -0.860754
			 0.279858  0.214153 -0.935851
			 0.151603  0.283718 -0.946848
			 0.567414  0.519608 -0.638787
			 0.609294  0.461432 -0.644857
			 0.482364  0.273317 -0.832240
			 0.235329  0.028879 -0.971487
			 0.027176 -0.049905 -0.998384
			-0.074339 -0.181396 -0.980596
			-0.339909 -0.236221 -0.910309
			-0.695920  0.002498 -0.718115
			-0.973330  0.136329 -0.184505
			-0.739959  0.221417  0.635165
			-0.575583  0.261371  0.774848
			-0.637413  0.181561  0.748826
			-0.932948  0.080704  0.350848
			-0.780609  0.060990  0.622036
			 0.061941  0.283736  0.956900
			-0.184600  0.365211  0.912439
			 0.040990  0.208987  0.977059
			-0.239179  0.248400  0.938664
			-0.402709  0.152308  0.902567
			 0.085154 -0.880441  0.466447
			-0.068366 -0.907821  0.413748
			-0.166995 -0.940917  0.294598
			-0.178535 -0.963699  0.198519
			-0.260957 -0.963087  0.066068
			-0.250998 -0.958436 -0.135649
			 0.024654 -0.643568  0.764992
			 0.193372  0.036448  0.980448
			 0.134670 -0.399444  0.906812
			 0.300852 -0.542140  0.784584
			 0.609142 -0.360963  0.706153
			-0.675742  0.504924 -0.537052
			-0.445541  0.511676 -0.734630
			-0.711201  0.513835 -0.479756
			-0.652337  0.604490 -0.457218
			 0.372101 -0.221391  0.901403
			 0.534402 -0.072283  0.842134
			-0.647759  0.537888 -0.539522
			-0.852164  0.213189 -0.477877
			-0.765522  0.154056 -0.624694
			 0.328275  0.700100  0.634111
			-0.101933  0.905013  0.412990
			-0.734630  0.611339 -0.294251
			-0.821725  0.286812 -0.492450
			 0.880682  0.459477  0.115236
			 0.913720  0.054677  0.402650
			 0.488595  0.489363 -0.722357
			 0.787330  0.403448 -0.466198
			 0.071559  0.261889 -0.962441
			-0.200773  0.160559 -0.966391
			-0.423891  0.224032 -0.877568
			-0.338981  0.116209 -0.933589
			-0.586819  0.250928 -0.769857
			-0.560369  0.245159 -0.791129
			-0.722339  0.235468 -0.650216
			-0.673566  0.342327 -0.655074
			-0.743095 -0.174165 -0.646124
			 0.682791  0.362423  0.634386
			 0.735404  0.187462  0.651183
			 0.701733  0.191358  0.686260
			-0.547558  0.795008 -0.261039
			 0.434206  0.683162  0.587158
			 0.418029  0.575028  0.703274
			 0.799924  0.180333  0.572365
			 0.754416  0.039136  0.655229
			-0.449400 -0.182502 -0.874490
			-0.549015 -0.537255 -0.640266
			-0.589954 -0.764742 -0.259084
			-0.671917 -0.737686  0.065931
			 0.555459 -0.285249  0.781088
			 0.538209 -0.211303  0.815894
			 0.277414 -0.270291  0.921946
			-0.091603 -0.311423  0.945846
			-0.385908 -0.592145  0.707418
			-0.213236 -0.391278  0.895227
			-0.568937 -0.695380  0.439042
			 0.456261 -0.312714 -0.833088
			 0.017470  0.163818  0.986336
			 0.000813 -0.109124  0.994028
			-0.017310 -0.337872  0.941033
			 0.815850 -0.325723 -0.477801
			 0.571723 -0.316729  0.756845
			 0.268369 -0.403700  0.874645
			 0.875661 -0.312327  0.368335
			 0.946133 -0.319522 -0.052319
			 0.367386 -0.066229 -0.927708
			 0.345468  0.356429 -0.868107
			 0.445357  0.460388 -0.767919
			 0.307249  0.109248 -0.945337
			 0.276413  0.235239 -0.931804
			 0.304631  0.437607 -0.845990
			 0.156955  0.403949 -0.901216
			 0.172044  0.344551 -0.922868
			 0.154552  0.360842 -0.919732
			 0.442320  0.217637 -0.870050
			 0.477015  0.509025 -0.716485
			 0.585376  0.558793 -0.587440
			 0.610515  0.478763 -0.630918
			 0.479077  0.248927 -0.841737
			 0.054450 -0.110830 -0.992347
			 0.269325  0.040429 -0.962200
			-0.091534 -0.234128 -0.967887
			-0.745591 -0.302348 -0.593869
			-0.383065 -0.362961 -0.849424
			-0.945502 -0.052409 -0.321372
			-0.989462 -0.026690  0.142313
			-0.685292  0.124913  0.717476
			-0.496546  0.125731  0.858856
			-0.581618  0.096433  0.807726
			-0.874198 -0.006345  0.485528
			-0.733462  0.031384  0.679005
			 0.144100  0.032980  0.989013
			-0.007049  0.156164  0.987706
			 0.148037 -0.059917  0.987165
			-0.013902 -0.095487  0.995334
			-0.218014  0.034489  0.975336
			-0.090986 -0.104000  0.990407
			-0.311052  0.028910  0.949953
			 0.063887 -0.015980  0.997829
			 0.113516 -0.166046  0.979563