<?xml version="1.0"?>
<VTKFile type="PolyData" version="0.1" byte_order="LittleEndian" compressor="vtkZLibDataCompressor">
	<PolyData>
		<Piece NumberOfPoints="603" NumberOfVerts="0" NumberOfLines="0" NumberOfStrips="0" NumberOfPolys="1202">
		<PointData Normals="Normals">
		<DataArray type="Float32" Name="Normals" NumberOfComponents="3" format="ascii">
			-0.110860 -0.931781  0.345680
			 0.383799 -0.634813  0.670605
			-0.603256 -0.549666  0.577883
			-0.666883 -0.600987  0.440547
			 0.951509 -0.301202 -0.062516
			 0.771905 -0.569750 -0.282042
			-0.270487 -0.947019 -0.173183
			-0.350226 -0.677349  0.646946
			 0.808046 -0.382065  0.448429
			 0.957949  0.281794 -0.054089
			-0.731183 -0.461515  0.502370
			-0.692700 -0.704984 -0.152200
			-0.786927 -0.463044  0.407843
			 0.924011  0.134723 -0.357846
			 0.200463 -0.538158 -0.818658
			 0.430407 -0.127593 -0.893571
			-0.269436 -0.431025 -0.861175
			-0.475469 -0.742349  0.472067
			 0.989816  0.138386 -0.033355
			-0.026511 -0.718892  0.694616
			 0.804633 -0.335042  0.490217
			 0.998542  0.025028 -0.047822
			 0.980884  0.086243 -0.174439
			-0.827575 -0.379552  0.413593
			-0.699370 -0.547826 -0.459094
			-0.763858 -0.334556  0.551900
			-0.843252 -0.532355  0.074328
			 0.678739 -0.135621 -0.721748
			 0.051589 -0.324850 -0.944357
			-0.303522 -0.360830 -0.881860
			-0.612469 -0.523727  0.592108
			 0.998306  0.058024 -0.004318
			-0.114574 -0.387903  0.914551
			 0.687404 -0.271379  0.673668
			 0.996638  0.062108  0.053428
			 0.781328 -0.195681 -0.592652
			-0.888082 -0.182726  0.421806
			-0.872215 -0.371166  0.318555
			-0.546397 -0.447357 -0.708040
			-0.786977 -0.342774  0.513004
			-0.720472 -0.556533 -0.413754
			 0.206589 -0.257725 -0.943874
			-0.230060 -0.294280 -0.927616
			-0.566454 -0.344105  0.748813
			 0.997591  0.062252 -0.030616
			 0.969415 -0.089006  0.228721
			 0.948244 -0.249296 -0.196687
			-0.121564 -0.253879  0.959566
			 0.993620 -0.095001 -0.060778
			 0.721737 -0.291144  0.627958
			 0.004288 -0.174622 -0.984626
			 0.494961 -0.194188 -0.846939
			-0.779885 -0.178372  0.599969
			-0.915784 -0.331845  0.226317
			-0.828714 -0.391272  0.400175
			-0.362679 -0.329818 -0.871598
			-0.912868 -0.315194  0.259471
			-0.366857 -0.283378 -0.886066
			-0.779209 -0.332171 -0.531504
			-0.508067 -0.241747  0.826696
			 0.922354 -0.262574  0.283405
			 0.985246 -0.171140 -0.001143
			 0.903886 -0.349450  0.246727
			 0.830140 -0.239111 -0.503681
			 0.942732 -0.291234 -0.162603
			 0.567438 -0.227946 -0.791236
			 0.020844 -0.181064  0.983250
			 0.927490 -0.208251  0.310472
			 0.046310 -0.232691 -0.971448
			-0.968881 -0.086165  0.232046
			-0.854616 -0.223377  0.468758
			-0.944733 -0.293377  0.146322
			-0.601894 -0.168787  0.780535
			-0.911864 -0.269917  0.309273
			-0.334035 -0.240122 -0.911461
			-0.801902 -0.123045 -0.584649
			 0.811759 -0.538637  0.225651
			 0.869990 -0.480202  0.111905
			 0.924665 -0.378550 -0.041169
			 0.930262 -0.332950 -0.154135
			 0.787156 -0.352528 -0.506073
			 0.502138 -0.283204 -0.817101
			 0.056992 -0.257680 -0.964548
			 0.016739 -0.257475  0.966140
			 0.722683 -0.346775  0.597894
			 0.926474 -0.376112  0.013662
			-0.983975  0.111447  0.139187
			-0.946562  0.054973  0.317802
			-0.986584 -0.117693  0.113141
			-0.999588 -0.027185  0.009239
			-0.532423 -0.108753  0.839463
			-0.854663 -0.036872  0.517873
			-0.441534 -0.126345 -0.888304
			-0.765041 -0.034747 -0.643043
			 0.816296 -0.568170  0.104134
			 0.758415 -0.644252  0.098719
			 0.731765 -0.490607 -0.473102
			 0.872902 -0.468242 -0.137083
			 0.463454 -0.317723 -0.827202
			-0.055711 -0.182951 -0.981542
			 0.290601 -0.441205  0.849052
			 0.652113 -0.642364  0.402639
			 0.737244 -0.672535  0.064560
			-0.935927  0.221699  0.273661
			-0.923553  0.100315 -0.370118
			-0.989900  0.140638  0.017867
			-0.924394  0.213864  0.315844
			-0.863873 -0.001552  0.503707
			-0.997688  0.066612 -0.013445
			-0.168360 -0.418081  0.892672
			-0.511990 -0.009234 -0.858942
			 0.774513 -0.552747 -0.307570
			 0.728119 -0.683605 -0.050274
			 0.376479 -0.579942 -0.722448
			 0.040813 -0.267288 -0.962752
			 0.248439 -0.730675  0.635919
			 0.566453 -0.808190  0.161123
			 0.423895 -0.795533  0.432944
			 0.657372 -0.753539 -0.006350
			-0.969203  0.177561  0.170637
			-0.832713  0.087355 -0.546770
			-0.966295  0.114531  0.230558
			-0.982759  0.123319  0.137756
			-0.760874 -0.081607  0.643748
			-0.563119 -0.137994  0.814773
			-0.318744 -0.372814  0.871442
			-0.460718 -0.077386 -0.884167
			 0.389645 -0.396729 -0.831133
			 0.621192 -0.487287 -0.613736
			 0.769770 -0.598698 -0.221392
			 0.766886 -0.615662 -0.181235
			-0.125923 -0.186638 -0.974325
			-0.157276 -0.494444  0.854862
			 0.378510 -0.414830  0.827434
			 0.665655 -0.698364  0.263042
			 0.570981 -0.243906  0.783895
			 0.679357 -0.716619 -0.157897
			 0.306485 -0.432708  0.847839
			-0.943271  0.173011  0.283386
			-0.910744  0.091325 -0.402748
			-0.974635  0.223545 -0.010706
			-0.956279  0.171043  0.237223
			-0.954042  0.105149  0.280618
			-0.756945 -0.111181  0.643951
			-0.531901 -0.157239  0.832080
			-0.555654 -0.199961  0.807010
			-0.577170 -0.088994 -0.811761
			-0.011264 -0.186311 -0.982426
			 0.436912 -0.482652 -0.759049
			 0.731760 -0.517528 -0.443500
			 0.846728 -0.461041 -0.265506
			 0.813577 -0.522893 -0.254313
			 0.661794 -0.684522 -0.305710
			 0.001339  0.135432  0.990786
			-0.468924 -0.138356  0.872335
			 0.083497  0.251701  0.964197
			 0.611330 -0.769665 -0.184098
			 0.674186 -0.736688 -0.052573
			 0.360684 -0.597949  0.715796
			-0.047521 -0.079172  0.995728
			-0.985722  0.154764  0.066331
			-0.997197  0.059407  0.045493
			-0.971545 -0.020279  0.235984
			-0.960863  0.178460  0.211883
			-0.670694 -0.141429  0.728126
			-0.600792 -0.185750  0.777525
			-0.354333 -0.123115 -0.926979
			-0.893196  0.002158 -0.449663
			-0.076720 -0.129737 -0.988576
			 0.482589 -0.344181 -0.805387
			 0.810025 -0.399623 -0.429140
			 0.830919 -0.477562 -0.285497
			 0.722801 -0.619924 -0.305375
			 0.592789 -0.696421 -0.404474
			 0.595623 -0.716269 -0.363582
			 0.140576  0.022566  0.989813
			-0.099206  0.077225  0.992066
			-0.507768 -0.045959  0.860267
			-0.065081 -0.026337  0.997532
			 0.714160 -0.659388 -0.234911
			 0.716887 -0.696016  0.040435
			-0.154265 -0.127774  0.979733
			 0.443560 -0.763184  0.469899
			 0.011383 -0.534351  0.845186
			-0.953675  0.300283  0.018284
			-0.995250 -0.096893  0.009427
			-0.991179  0.132533 -0.000012
			-0.891991 -0.154323  0.424896
			-0.927828  0.339828  0.153796
			-0.622159  0.181711  0.761511
			-0.660599 -0.079827  0.746483
			-0.668538  0.214588  0.712046
			-0.257275  0.063202 -0.964269
			-0.494450  0.097606 -0.863708
			-0.767860  0.145798 -0.623806
			 0.215128 -0.187641 -0.958390
			 0.803428 -0.572734 -0.162723
			 0.697368 -0.523532 -0.489482
			 0.699107 -0.660117 -0.274763
			 0.675438 -0.667845 -0.312676
			 0.616719 -0.709316 -0.341363
			 0.693154 -0.620339 -0.367038
			 0.093955 -0.232349  0.968084
			 0.226652 -0.416557  0.880403
			-0.411721  0.336153  0.847046
			-0.094244 -0.327394  0.940176
			 0.799488 -0.586549 -0.129535
			 0.791452 -0.532399  0.300257
			-0.146303 -0.480630  0.864633
			 0.181213 -0.437485  0.880777
			-0.774243  0.393355 -0.495802
			-0.889062  0.456071  0.039599
			-0.989388 -0.117261  0.085799
			-0.975674  0.099522 -0.195334
			-0.932704  0.358978  0.034627
			-0.857014  0.081340  0.508833
			-0.703458  0.451572  0.548844
			-0.594804  0.412543  0.689940
			-0.583928  0.589809  0.557812
			-0.220321  0.160867 -0.962071
			-0.424053  0.270420 -0.864322
			 0.288822 -0.141914 -0.946806
			 0.622913 -0.568964 -0.536897
			 0.636976 -0.762537 -0.113130
			 0.669815 -0.695475 -0.260119
			 0.711563 -0.564024 -0.418994
			 0.774122 -0.546530 -0.319438
			-0.120564 -0.301826  0.945709
			-0.512507  0.117809  0.850563
			 0.202151 -0.465517  0.861643
			 0.256031 -0.291829  0.921566
			-0.319014  0.003930  0.947742
			 0.935425 -0.352439 -0.027700
			 0.972205 -0.123474  0.198925
			 0.470780 -0.125322  0.873304
			-0.428062  0.014767  0.903629
			-0.735888  0.424949 -0.527150
			-0.909563  0.414746 -0.026096
			-0.949046  0.283879 -0.136838
			-0.891481  0.368327  0.263814
			-0.918736  0.318108 -0.233948
			-0.926023  0.377207  0.013999
			-0.642887  0.560531  0.522016
			-0.729742  0.167191  0.662966
			-0.754166  0.301721  0.583264
			-0.518357  0.556326  0.649467
			-0.052736 -0.007915 -0.998577
			-0.383083  0.195904 -0.902701
			 0.318356 -0.443126 -0.838027
			 0.503497 -0.517243 -0.692062
			 0.658581 -0.708984 -0.252215
			 0.707281 -0.706665 -0.019442
			 0.800152 -0.533391 -0.274320
			 0.741823 -0.358735 -0.566575
			 0.822905 -0.056089 -0.565403
			 0.844829 -0.360996 -0.394900
			 0.989285 -0.135606 -0.054103
			-0.433776  0.007891  0.900986
			-0.160565 -0.036743  0.986341
			 0.183642  0.065312  0.980821
			 0.160991  0.043778  0.985985
			-0.542087 -0.013242  0.840218
			-0.231410 -0.078641  0.969673
			 0.970277  0.187541  0.152942
			 0.959249  0.166473  0.228314
			-0.353633 -0.131916  0.926036
			 0.408655 -0.083160  0.908893
			-0.765839  0.387968 -0.512807
			-0.867988  0.496308  0.016572
			-0.773569  0.615508  0.150803
			-0.869675  0.467693 -0.157889
			-0.918058  0.348821 -0.188396
			-0.891742  0.452329 -0.013905
			-0.585909  0.630426  0.509190
			-0.786939  0.300392  0.538973
			-0.657173  0.383718  0.648756
			-0.682418  0.454180  0.572735
			-0.027058  0.018867 -0.999456
			-0.199788  0.034001 -0.979249
			-0.486375  0.213409 -0.847287
			 0.364323 -0.297607 -0.882439
			 0.783111 -0.618851 -0.061319
			 0.546214 -0.483782 -0.683817
			 0.726711 -0.686857 -0.010925
			 0.869721 -0.466763 -0.160370
			 0.805137 -0.309663 -0.505830
			 0.740006 -0.168100 -0.651255
			 0.877259 -0.223649 -0.424732
			 0.956203  0.149312 -0.251758
			 0.937787  0.315905  0.144081
			-0.443671  0.487455  0.752026
			-0.033022  0.251487  0.967297
			 0.217028 -0.304101  0.927589
			-0.429781 -0.209039  0.878402
			-0.380226 -0.209911  0.900759
			-0.126189 -0.261985  0.956786
			 0.935007  0.338859  0.104579
			 0.917127  0.260322  0.301844
			 0.273239 -0.008894  0.961905
			-0.851001  0.440897 -0.285320
			-0.747574  0.625882  0.222270
			-0.854481  0.506601 -0.114967
			-0.907484  0.407585 -0.101720
			-0.726034  0.476171  0.496121
			-0.788342  0.476059  0.389723
			-0.585259  0.654032  0.479284
			-0.112965 -0.047411 -0.992467
			 0.100744 -0.111144 -0.988685
			-0.309166  0.020584 -0.950785
			-0.678870  0.287510 -0.675629
			 0.591188 -0.516428 -0.619515
			 0.553423 -0.660948 -0.506824
			 0.659042 -0.741536 -0.125647
			 0.649050 -0.757605 -0.069048
			 0.672833 -0.728720  0.127523
			 0.720248 -0.693602  0.012626
			 0.776478 -0.390056 -0.494913
			 0.773559 -0.631708 -0.050503
			 0.893433  0.094322 -0.439182
			 0.833014  0.553239  0.003723
			 0.871045  0.490026  0.033999
			-0.583665  0.619159  0.525335
			-0.171015  0.146805  0.974270
			 0.065401 -0.150403  0.986459
			-0.326284 -0.121906  0.937378
			-0.501140 -0.195971  0.842884
			-0.151055  0.007819  0.988495
			 0.713236  0.421469  0.560052
			-0.909560  0.371063 -0.187117
			-0.798088  0.602235 -0.019197
			-0.796210  0.533143  0.286022
			-0.854935  0.515623 -0.056742
			-0.577706  0.636993  0.510387
			-0.763229  0.487476  0.424086
			-0.855012  0.392562  0.338895
			-0.516102  0.733821  0.441754
			-0.176799 -0.058883 -0.982484
			-0.022699 -0.093433 -0.995367
			 0.208711 -0.197559 -0.957815
			-0.453270 -0.046946 -0.890136
			-0.690993  0.131119 -0.710870
			 0.556334 -0.530759 -0.639366
			 0.653309 -0.477234 -0.587737
			 0.854776 -0.518972  0.005179
			 0.860594 -0.491027  0.135168
			 0.996560 -0.066155 -0.049920
			 0.830060  0.555866  0.044865
			 0.739027  0.640385  0.209155
			-0.756176  0.473581  0.451573
			-0.648463  0.304150  0.697845
			-0.233815 -0.060573  0.970392
			 0.007980 -0.240682  0.970571
			-0.360083 -0.230152  0.904085
			-0.389566 -0.074561  0.917976
			 0.183091  0.473023  0.861816
			-0.885797  0.457721  0.076513
			-0.846613  0.231901 -0.479029
			-0.840287  0.542141  0.001445
			-0.912047  0.368001  0.180955
			-0.517574  0.602033  0.608008
			-0.760703  0.391008  0.518115
			-0.725040  0.371259  0.580072
			-0.180309  0.004895 -0.983598
			-0.500887  0.136489 -0.854683
			 0.021774 -0.075154 -0.996934
			 0.177818  0.005090 -0.984050
			 0.694704 -0.149544 -0.703579
			 0.861496 -0.433777  0.263935
			 0.850116 -0.424699 -0.311341
			 0.959183 -0.272476  0.075671
			 0.915640  0.360635  0.177612
			 0.996023  0.046228  0.076164
			 0.779685  0.590529  0.208246
			 0.305122  0.427921  0.850755
			-0.792831  0.025485  0.608909
			-0.527726 -0.188699  0.828190
			-0.076042 -0.255379  0.963846
			-0.118337 -0.326326  0.937821
			-0.222147 -0.178221  0.958586
			-0.855130  0.396216 -0.334313
			-0.923298  0.351146  0.155616
			-0.900437  0.408379  0.149802
			-0.989610  0.118435 -0.081516
			-0.992295 -0.004181  0.123830
			-0.834032  0.213836  0.508591
			-0.518954  0.402394  0.754166
			-0.487079  0.229021  0.842795
			-0.840636 -0.222620  0.493732
			-0.666382 -0.110838  0.737326
			-0.509396  0.227060 -0.830036
			-0.187836  0.073970 -0.979411
			-0.012342  0.100626 -0.994848
			 0.248180  0.032091 -0.968182
			 0.019510  0.119602 -0.992630
			 0.665178 -0.746154 -0.028150
			 0.717513 -0.637125  0.281508
			 0.460172 -0.444769 -0.768389
			 0.970303 -0.072856  0.230659
			 0.879505  0.438477  0.184957
			 0.774412  0.528352  0.348038
			 0.316701  0.198648  0.927491
			-0.757269 -0.159836  0.633243
			-0.456470 -0.038990  0.888884
			-0.112272  0.022350  0.993426
			-0.217915 -0.234993  0.947255
			-0.141133 -0.075272  0.987125
			-0.821511  0.451094 -0.348761
			-0.963552  0.267510  0.002596
			-0.889737  0.452347  0.061238
			-0.928761  0.324052 -0.179981
			-0.982763  0.183622 -0.021437
			-0.768495  0.194547  0.609563
			-0.505648 -0.435589  0.744703
			-0.662361 -0.328980  0.673089
			-0.530296  0.254831 -0.808609
			-0.198852  0.069913 -0.977533
			 0.021201 -0.012727 -0.999694
			 0.078769 -0.028525 -0.996485
			 0.609425 -0.641271  0.466233
			 0.869179 -0.412634 -0.272507
			 0.886667 -0.435142  0.156437
			 0.516564 -0.383362 -0.765634
			 0.752171 -0.581634  0.309742
			 0.283651 -0.302914 -0.909827
			 0.634008 -0.536013  0.557426
			 0.811605 -0.352151  0.466140
			 0.919681  0.103977  0.378650
			 0.906996  0.362287  0.214725
			 0.494061  0.312685  0.811253
			 0.805027  0.510844  0.301613
			-0.346693 -0.164650  0.923414
			-0.080469 -0.304866  0.948990
			-0.842682  0.418751 -0.338430
			-0.868027  0.495176 -0.036457
			-0.866878  0.498472 -0.006919
			-0.802747 -0.002839  0.596313
			-0.707974 -0.218890  0.671461
			-0.713171 -0.120074  0.690630
			-0.489575  0.247827 -0.836001
			-0.243855  0.187920 -0.951431
			 0.033074  0.070606 -0.996956
			-0.066027  0.181633 -0.981147
			 0.851408 -0.143175  0.504584
			 0.617568 -0.413579  0.669001
			 0.958916  0.244750 -0.143447
			 0.659122  0.185905 -0.728695
			 0.957499  0.203701  0.204210
			 0.163797  0.061498 -0.984575
			 0.712087 -0.272642  0.646992
			 0.837363  0.114970  0.534420
			 0.859784  0.380460  0.340620
			 0.823164  0.438950  0.360173
			 0.473888  0.078517  0.877078
			-0.379309 -0.290160  0.878596
			-0.116060 -0.253385  0.960378
			-0.675450  0.204708 -0.708422
			-0.955612  0.287837 -0.062894
			-0.787597  0.610262 -0.085270
			-0.873872  0.466277  0.137601
			-0.785004  0.584607 -0.204947
			-0.899938  0.435545  0.020295
			-0.861660  0.258180  0.436903
			-0.781736 -0.005702  0.623584
			-0.570476 -0.366424  0.735044
			-0.280670  0.173133 -0.944060
			-0.146508  0.236309 -0.960569
			 0.000974  0.158679 -0.987330
			 0.033475  0.236787 -0.970985
			 0.684634  0.723278  0.090256
			 0.784263  0.394556  0.478808
			 0.581755 -0.034289  0.812641
			 0.645602  0.091299  0.758197
			 0.682999  0.699625 -0.209850
			 0.351388  0.425512 -0.833946
			 0.674975  0.282866  0.681465
			 0.721911  0.534802  0.439125
			 0.764114  0.598876  0.239745
			 0.782907  0.521412  0.339390
			 0.062608 -0.023779  0.997755
			 0.536385  0.377558  0.754811
			-0.260055 -0.339216  0.904049
			-0.889922  0.334123 -0.310484
			-0.526820  0.147931 -0.837005
			-0.853294  0.470387  0.224999
			-0.803287  0.583424  0.119778
			-0.770464  0.611170 -0.181262
			-0.788806  0.613400 -0.039062
			-0.827294  0.553320 -0.097063
			-0.895913  0.223838  0.383713
			-0.822061 -0.187608  0.537604
			-0.479190 -0.281187  0.831451
			-0.798670 -0.243869  0.550140
			-0.146508  0.034447 -0.988610
			 0.099165 -0.080365 -0.991820
			 0.024544  0.266074 -0.963640
			 0.306817  0.595092 -0.742785
			 0.519273  0.850377  0.084933
			 0.478044  0.878231 -0.013571
			 0.494846  0.779602  0.383859
			 0.496057  0.454922  0.739577
			 0.399349  0.586917  0.704308
			 0.568720  0.811091 -0.136704
			 0.693238  0.453669  0.560005
			 0.816564  0.460848  0.347623
			 0.659726  0.567494  0.492658
			-0.283147 -0.127429  0.950573
			 0.154606  0.346854  0.925089
			-0.871272  0.482485 -0.089959
			-0.567472  0.240251 -0.787563
			-0.846910  0.472718  0.243477
			-0.884249  0.466938  0.008532
			-0.822867  0.536366 -0.187619
			-0.804585  0.575112 -0.147952
			-0.911020  0.368828  0.184412
			-0.932070  0.189720  0.308630
			-0.882614  0.239161  0.404715
			-0.616019  0.098689  0.781525
			-0.866874  0.106249  0.487073
			-0.076274 -0.087331 -0.993255
			 0.091205  0.090477 -0.991714
			 0.013804  0.005803 -0.999888
			 0.153723  0.052631 -0.986711
			 0.131068  0.387904 -0.912333
			 0.227406  0.706914 -0.669746
			 0.317203  0.948262  0.013488
			 0.355362  0.934726  0.002464
			 0.328552  0.932137  0.152229
			 0.588131  0.577145  0.566573
			 0.282003  0.733992  0.617844
			 0.222135  0.864617  0.450660
			 0.788352  0.441046  0.428928
			 0.685824  0.660903  0.304717
			 0.352598  0.725364  0.591204
			-0.104116  0.465285  0.879016
			-0.360951  0.177062  0.915622
			-0.875928  0.358235  0.323138
			-0.886599  0.436398 -0.153295
			-0.593269  0.289337 -0.751210
			-0.913661  0.323212  0.246492
			-0.956990  0.288200  0.033333
			-0.925627  0.357510 -0.124104
			-0.892799  0.450157  0.016392
			-0.963813  0.117841  0.239121
			-0.820575  0.214099  0.529923
			-0.558631  0.299361  0.773508
			-0.172851  0.235181 -0.956458
			-0.038927  0.264989 -0.963465
			 0.167522  0.446963 -0.878727
			 0.255819  0.929142 -0.266930
			 0.178574  0.963037  0.201670
			 0.446697  0.765178  0.463642
			 0.656910  0.639257  0.399774
			 0.534923  0.439649  0.721503
			-0.106754  0.401849  0.909462
			-0.837367  0.543820 -0.055457
			-0.860854  0.497655  0.106160
			-0.547235  0.561898 -0.620327
			-0.989082 -0.055952 -0.136333
			-0.993877  0.103125  0.039672
			-0.832331  0.352168  0.428021
			-0.397723  0.361301  0.843373
			-0.283129  0.599668 -0.748489
			-0.301870  0.583815 -0.753681
			-0.217414  0.653408 -0.725113
			-0.147338  0.715884 -0.682497
			 0.015493  0.913564 -0.406400
			 0.184912  0.978755  0.088577
			 0.112979  0.988135 -0.104046
			 0.736950  0.597665  0.315755
			 0.779713  0.505528  0.369444
			 0.514448  0.435884  0.738477
			-0.080711  0.277597  0.957301
			-0.681566  0.658806 -0.318500
			-0.817718  0.349543 -0.457336
			-0.931710  0.307852  0.192727
			-0.991964 -0.009706 -0.126148
			-0.862525  0.148108 -0.483854
			-0.805662  0.582977  0.105101
			-0.695527  0.618739  0.365244
			-0.046565  0.839800  0.540895
			-0.526113  0.736140  0.425798
			-0.483788  0.657975 -0.577078
			-0.079474  0.731084 -0.677643
			 0.308593  0.696365 -0.647956
			 0.028908  0.953356 -0.300462
			 0.402396  0.898911  0.173311
			 0.321747  0.946210 -0.034128
			 0.239367  0.953301  0.184177
			 0.379427  0.917545  0.118937
			 0.285689  0.936336  0.204100
			-0.509926  0.655254 -0.557331
			-0.573445  0.784251 -0.236877
			-0.657778  0.658131 -0.366322
			-0.370993  0.927023  0.054702
			-0.821565  0.567572  0.053788
			-0.463148  0.863466  0.199803
			-0.722426  0.661749 -0.200471
			 0.040556  0.749175 -0.661130
			 0.265340  0.796200 -0.543747
			 0.325166  0.885879 -0.330887
			 0.115481  0.991134  0.065705
			-0.029426  0.996060  0.083656
			-0.302470  0.952006  0.046858
		</DataArray>
	</PointData>
	<Points>
		<DataArray type="Float32" NumberOfComponents="3" format="ascii">
			-0.141662 -0.068942  0.013032
			-0.137786 -0.066545  0.019035
			-0.141292 -0.064936  0.017652
			-0.144115 -0.066722  0.012947
			-0.138144 -0.067450  0.012840
			-0.139005 -0.068293  0.008956
			-0.142268 -0.069626  0.009539
			-0.139690 -0.063923  0.020320
			-0.139152 -0.063673  0.020472
			-0.138778 -0.064077  0.015817
			-0.143689 -0.062845  0.016304
			-0.144892 -0.067444  0.009746
			-0.146736 -0.064795  0.011039
			-0.139390 -0.065184  0.008856
			-0.139917 -0.068768  0.008270
			-0.140204 -0.065668  0.007751
			-0.143344 -0.066942  0.008393
			-0.141270 -0.060741  0.025067
			-0.139615 -0.061141  0.015901
			-0.139491 -0.059643  0.027812
			-0.139133 -0.059502  0.027699
			-0.139250 -0.059896  0.024867
			-0.139906 -0.062126  0.008806
			-0.145316 -0.060396  0.015166
			-0.146881 -0.065080  0.009197
			-0.147717 -0.061871  0.011523
			-0.148490 -0.062443  0.009554
			-0.140494 -0.062558  0.007327
			-0.142621 -0.063530  0.006855
			-0.144167 -0.064148  0.007244
			-0.142433 -0.057608  0.027928
			-0.139757 -0.058084  0.014502
			-0.140301 -0.056492  0.029568
			-0.139596 -0.056182  0.029617
			-0.138974 -0.056126  0.027874
			-0.140227 -0.059263  0.006457
			-0.145895 -0.057338  0.015346
			-0.144934 -0.055633  0.025998
			-0.148041 -0.062359  0.008651
			-0.150092 -0.059808  0.009866
			-0.150269 -0.060025  0.008710
			-0.142102 -0.060166  0.005664
			-0.143748 -0.060824  0.006079
			-0.143437 -0.054711  0.028288
			-0.140488 -0.054527  0.019339
			-0.140120 -0.055142  0.012957
			-0.138721 -0.055195  0.007548
			-0.139360 -0.052639  0.030902
			-0.139188 -0.053006  0.027264
			-0.138605 -0.052324  0.030817
			-0.142601 -0.057161  0.005119
			-0.140514 -0.056221  0.005450
			-0.147750 -0.055184  0.012594
			-0.146234 -0.053957  0.017322
			-0.145953 -0.052638  0.027212
			-0.147901 -0.059241  0.006772
			-0.152002 -0.057470  0.008833
			-0.150173 -0.056898  0.007054
			-0.151770 -0.057447  0.008197
			-0.144869 -0.051988  0.028723
			-0.140033 -0.051576  0.014960
			-0.140365 -0.051402  0.017570
			-0.137577 -0.050943  0.011457
			-0.137588 -0.051447  0.007339
			-0.137309 -0.051239  0.008063
			-0.139447 -0.052492  0.005318
			-0.138343 -0.048847  0.031461
			-0.137768 -0.048633  0.031185
			-0.142514 -0.053897  0.004616
			-0.152307 -0.054386  0.008249
			-0.148737 -0.052254  0.013154
			-0.147402 -0.051121  0.017762
			-0.145952 -0.049180  0.028626
			-0.147396 -0.050085  0.026283
			-0.149068 -0.053326  0.005489
			-0.152132 -0.054416  0.007375
			-0.138481 -0.047232  0.018169
			-0.135883 -0.047010  0.010781
			-0.139732 -0.047169  0.023130
			-0.136150 -0.047468  0.007949
			-0.137119 -0.048074  0.006393
			-0.139977 -0.049572  0.004174
			-0.142693 -0.050810  0.003612
			-0.138432 -0.045489  0.032381
			-0.137419 -0.045085  0.032107
			-0.137007 -0.045151  0.030100
			-0.152016 -0.050977  0.008228
			-0.148726 -0.048825  0.014294
			-0.148260 -0.047422  0.024219
			-0.147939 -0.047997  0.018330
			-0.144929 -0.045345  0.029524
			-0.147573 -0.046772  0.027132
			-0.149686 -0.050348  0.005144
			-0.151628 -0.051017  0.006520
			-0.132420 -0.041834  0.014074
			-0.136022 -0.042282  0.023162
			-0.135599 -0.044278  0.005201
			-0.132539 -0.042440  0.009500
			-0.138930 -0.045983  0.002962
			-0.143367 -0.047900  0.002895
			-0.136946 -0.041400  0.033718
			-0.135662 -0.041000  0.032463
			-0.135355 -0.041233  0.029450
			-0.150929 -0.047238  0.008099
			-0.151201 -0.047582  0.006222
			-0.147258 -0.044474  0.017865
			-0.148609 -0.045680  0.012713
			-0.147771 -0.043664  0.026372
			-0.148578 -0.044424  0.022965
			-0.137062 -0.037840  0.036388
			-0.150469 -0.047360  0.005462
			-0.132742 -0.039943  0.003709
			-0.125815 -0.035180  0.018404
			-0.135524 -0.041367  0.001834
			-0.140356 -0.043429  0.001987
			-0.130021 -0.034879  0.035816
			-0.120754 -0.030970  0.035162
			-0.121463 -0.031185  0.035902
			-0.120895 -0.031396  0.032148
			-0.150686 -0.043987  0.006937
			-0.150548 -0.044051  0.005933
			-0.147989 -0.042239  0.011784
			-0.147971 -0.040527  0.025853
			-0.146077 -0.039328  0.029010
			-0.139305 -0.035628  0.035488
			-0.133353 -0.032658  0.038854
			-0.148010 -0.043187  0.004045
			-0.132809 -0.037130  0.000042
			-0.130678 -0.036065  0.001257
			-0.128513 -0.034709  0.004760
			-0.120682 -0.028929  0.024640
			-0.138221 -0.039389  0.000628
			-0.127193 -0.029314  0.044567
			-0.116502 -0.025019  0.042045
			-0.108223 -0.021627  0.040640
			-0.108414 -0.021644  0.041178
			-0.113920 -0.024764  0.034984
			-0.125028 -0.028385  0.044547
			-0.149879 -0.040310  0.007305
			-0.150149 -0.040644  0.005500
			-0.146590 -0.037003  0.022910
			-0.148136 -0.039104  0.011068
			-0.146790 -0.036554  0.027314
			-0.144942 -0.035354  0.030655
			-0.139683 -0.032493  0.035583
			-0.133246 -0.029209  0.039814
			-0.148723 -0.040193  0.004161
			-0.133770 -0.034305 -0.000350
			-0.128977 -0.032290 -0.000748
			-0.126524 -0.031015  0.001063
			-0.125561 -0.030423  0.002528
			-0.117711 -0.024714  0.021746
			-0.113680 -0.022324  0.027154
			-0.126534 -0.025756  0.044472
			-0.129258 -0.027035  0.043602
			-0.112822 -0.020251  0.041199
			-0.101601 -0.016000  0.036430
			-0.098963 -0.014410  0.040192
			-0.098890 -0.014161  0.041987
			-0.102097 -0.015562  0.041806
			-0.149471 -0.037040  0.005719
			-0.145642 -0.033685  0.019808
			-0.146262 -0.032834  0.029018
			-0.147502 -0.035575  0.010817
			-0.144129 -0.031476  0.032646
			-0.133404 -0.025919  0.040418
			-0.146491 -0.036150  0.002487
			-0.149531 -0.037244  0.004250
			-0.132290 -0.030497 -0.001300
			-0.126964 -0.028211 -0.001357
			-0.125104 -0.027216  0.000250
			-0.118604 -0.022472  0.016306
			-0.115486 -0.020482  0.021648
			-0.112498 -0.018914  0.023985
			-0.101229 -0.013450  0.029037
			-0.116835 -0.018735  0.040856
			-0.128935 -0.023568  0.043942
			-0.130994 -0.024528  0.043331
			-0.109145 -0.015440  0.040727
			-0.098867 -0.012178  0.031151
			-0.092689 -0.007982  0.043826
			-0.102452 -0.012408  0.041972
			-0.093076 -0.008051  0.044633
			-0.094535 -0.008678  0.044638
			-0.148827 -0.033614  0.004594
			-0.146558 -0.029970  0.026586
			-0.146118 -0.030807  0.018127
			-0.145735 -0.029070  0.031096
			-0.146617 -0.031906  0.010835
			-0.137002 -0.024477  0.037972
			-0.143923 -0.027998  0.033507
			-0.133651 -0.022636  0.041261
			-0.139862 -0.030269  0.000355
			-0.147493 -0.033263  0.002751
			-0.148523 -0.033605  0.003591
			-0.125181 -0.024236 -0.001994
			-0.121757 -0.021854  0.005493
			-0.123648 -0.023492 -0.001312
			-0.118198 -0.019568  0.011718
			-0.114284 -0.017549  0.014476
			-0.109207 -0.014663  0.020249
			-0.099885 -0.010014  0.025508
			-0.123632 -0.018090  0.043195
			-0.109705 -0.012319  0.041355
			-0.129074 -0.020429  0.043223
			-0.104797 -0.010167  0.041682
			-0.089359 -0.003618  0.040894
			-0.087607 -0.001660  0.050826
			-0.089566 -0.002500  0.050851
			-0.088201 -0.001862  0.051275
			-0.146824 -0.029603  0.003461
			-0.146982 -0.029447  0.005301
			-0.147236 -0.026854  0.027590
			-0.145711 -0.027119  0.019990
			-0.144553 -0.027703  0.011067
			-0.146452 -0.026109  0.030954
			-0.133096 -0.019497  0.038078
			-0.144124 -0.024832  0.033226
			-0.136851 -0.021421  0.035540
			-0.131118 -0.023371 -0.000896
			-0.144280 -0.028666  0.002152
			-0.120463 -0.018879 -0.001663
			-0.118403 -0.017866 -0.000629
			-0.116224 -0.016380  0.003894
			-0.111737 -0.013388  0.012642
			-0.102333 -0.008529  0.019342
			-0.087240  0.000065  0.036652
			-0.120972 -0.013367  0.045598
			-0.128802 -0.017162  0.042092
			-0.116836 -0.011537  0.046015
			-0.107671 -0.007906  0.043431
			-0.102847 -0.005801  0.043664
			-0.085510  0.001160  0.039539
			-0.086293  0.002097  0.050043
			-0.087150  0.001913  0.051573
			-0.091360 -0.000057  0.050262
			-0.144036 -0.025079  0.003775
			-0.144517 -0.025059  0.005642
			-0.147399 -0.023930  0.025181
			-0.146753 -0.023249  0.028504
			-0.143484 -0.023216  0.017179
			-0.143362 -0.023765  0.012214
			-0.145360 -0.022468  0.030004
			-0.130765 -0.015076  0.039163
			-0.134773 -0.017476  0.033592
			-0.138171 -0.019222  0.031253
			-0.121411 -0.016017 -0.001801
			-0.141215 -0.024030  0.002414
			-0.113785 -0.012855 -0.002787
			-0.110300 -0.011248 -0.001911
			-0.108562 -0.010269 -0.000009
			-0.106321 -0.008519  0.006479
			-0.103578 -0.006345  0.014663
			-0.092034  0.000368  0.029059
			-0.098522 -0.003478  0.020362
			-0.085441  0.003791  0.033884
			-0.084694  0.004449  0.036662
			-0.121345 -0.010182  0.046095
			-0.118103 -0.008612  0.047528
			-0.115570 -0.007542  0.047362
			-0.106664 -0.004266  0.042771
			-0.093335  0.002107  0.048020
			-0.103107 -0.002707  0.043001
			-0.086421  0.004697  0.044834
			-0.086976  0.005158  0.050613