<?xml version="1.0"?>
<VTKFile type="PolyData" version="0.1" byte_order="LittleEndian" compressor="vtkZLibDataCompressor">
	<PolyData>
		<Piece NumberOfPoints="672" NumberOfVerts="0" NumberOfLines="0" NumberOfStrips="0" NumberOfPolys="1338">
		<PointData Normals="Normals">
		<DataArray type="Float32" Name="Normals" NumberOfComponents="3" format="ascii">
			-0.840010 -0.281625 -0.463757
			-0.962854 -0.019413 -0.269324
			-0.995954  0.026069 -0.086003
			-0.824272 -0.360075 -0.436947
			-0.130687 -0.396015 -0.908897
			-0.711084 -0.243896 -0.659450
			-0.718025 -0.198884  0.666997
			-0.348342 -0.513627 -0.784120
			-0.968301  0.031744  0.247763
			-0.716885 -0.228555 -0.658664
			-0.918890 -0.390744 -0.054407
			-0.832393 -0.395570 -0.388131
			 0.192548 -0.253346 -0.948020
			 0.380094 -0.463012 -0.800717
			 0.967707  0.195092 -0.159634
			 0.748784  0.152528  0.645026
			 0.782889  0.218001  0.582718
			 0.188659  0.082079  0.978607
			 0.687037 -0.058101  0.724295
			-0.155892 -0.075106  0.984915
			-0.358242 -0.387146 -0.849577
			-0.048168 -0.209931  0.976529
			 0.424470  0.000762 -0.905442
			-0.819842 -0.347636 -0.454982
			-0.449688 -0.171350  0.876596
			-0.927708 -0.363130 -0.086577
			-0.667633 -0.303524 -0.679809
			-0.321991 -0.222350 -0.920262
			 0.622099  0.097338 -0.776864
			 0.950576  0.306714  0.048289
			 0.991253 -0.130435 -0.020109
			 0.997580 -0.063081  0.029231
			 0.967586  0.024038  0.251397
			 0.955692  0.144311  0.256569
			 0.706955  0.283145  0.648108
			 0.905865  0.178501  0.384117
			 0.777616  0.025619  0.628218
			 0.867710  0.314067  0.385282
			-0.441958 -0.098092  0.891656
			 0.402866 -0.013612 -0.915158
			-0.835152 -0.345310 -0.428115
			 0.694140  0.264069  0.669655
			-0.443057 -0.139777  0.885530
			-0.896819 -0.442377  0.004324
			 0.504135  0.023548 -0.863304
			-0.551645 -0.485348 -0.678325
			 0.946766  0.304601  0.104174
			 0.965953  0.155627  0.206674
			 0.872498  0.328857  0.361386
			-0.430926 -0.091707  0.897715
			 0.310074  0.022748 -0.950440
			-0.862524 -0.311971 -0.398405
			 0.620488  0.268226  0.736919
			-0.390641 -0.106192  0.914398
			-0.673812 -0.654874  0.342225
			 0.271012  0.010939 -0.962514
			 0.870960  0.280430 -0.403470
			 0.929469  0.315752  0.190757
			-0.591473 -0.721110 -0.360778
			-0.259955 -0.401339 -0.878266
			 0.196202 -0.009614 -0.980516
			 0.891466  0.306359  0.333815
			-0.389101 -0.142663  0.910081
			 0.345825  0.056471 -0.936598
			-0.874236 -0.194460 -0.444857
			 0.575888  0.332573  0.746826
			 0.067775  0.038048  0.996975
			-0.274284 -0.406205  0.871646
			-0.614688 -0.776036  0.141162
			 0.764037  0.350216 -0.541846
			 0.881047  0.437240  0.180490
			-0.272430 -0.371739 -0.887464
			-0.582091 -0.656501 -0.479767
			 0.213571  0.099204 -0.971878
			 0.662474  0.431356 -0.612422
			 0.916444  0.202867  0.344927
			-0.407104 -0.078906  0.909967
			 0.353301  0.055439 -0.933866
			-0.908208 -0.082844 -0.410238
			 0.653477  0.445990  0.611606
			 0.129418 -0.036425  0.990921
			 0.632253  0.372005  0.679610
			-0.360842 -0.441159  0.821688
			-0.703215 -0.660848  0.262239
			-0.680878 -0.618272 -0.392613
			 0.837516  0.537375  0.098974
			-0.313900 -0.324197 -0.892392
			 0.256057  0.157756 -0.953702
			 0.593070  0.421552 -0.685975
			 0.868061  0.496358  0.009880
			 0.946550  0.093384  0.308743
			-0.385133 -0.008633  0.922821
			 0.420410 -0.010627 -0.907272
			-0.959547 -0.078317 -0.270437
			 0.503645  0.233141  0.831858
			 0.037049 -0.122128  0.991823
			 0.808931  0.440913  0.388877
			-0.451755 -0.449021  0.770907
			-0.769017 -0.623615  0.140418
			-0.564600 -0.465955 -0.681258
			-0.724509 -0.582803 -0.368004
			-0.132615 -0.235400 -0.962809
			 0.375843  0.049804 -0.925344
			 0.833058  0.390483 -0.391838
			 0.924110  0.035799  0.380445
			-0.205235 -0.044838  0.977685
			 0.998790  0.027582  0.040729
			 0.037183 -0.105233 -0.993752
			-0.993317 -0.084170 -0.078974
			 0.753606  0.370290  0.543105
			 0.318692  0.153677  0.935318
			-0.177050 -0.185312  0.966599
			-0.638011 -0.491129  0.593073
			-0.797813 -0.595909 -0.091576
			-0.651727 -0.509114 -0.562188
			-0.334251 -0.360506 -0.870811
			 0.217566  0.024874 -0.975729
			 0.625685  0.290729 -0.723875
			 0.906975  0.407355 -0.107040
			 0.058436  0.117955  0.991298
			 0.973388  0.043808 -0.224937
			-0.350030 -0.145135 -0.925427
			-0.984788 -0.035497  0.170097
			 0.894239  0.445984 -0.037870
			 0.694175  0.326192  0.641654
			 0.454472  0.218542  0.863536
			 0.039405  0.032388  0.998698
			-0.398610 -0.253748  0.881318
			-0.737151 -0.520530  0.430879
			-0.797072 -0.568369 -0.204039
			-0.639878 -0.448304 -0.624162
			 0.230176  0.040705 -0.972297
			-0.267593 -0.263274 -0.926866
			 0.561357  0.336867 -0.755909
			 0.537644  0.184324  0.822778
			-0.035228 -0.108782 -0.993441
			 0.986542 -0.027910 -0.161109
			 0.195234  0.140040  0.970707
			-0.995579  0.062846  0.069801
			 0.881914  0.442526  0.162476
			 0.697071  0.357856  0.621314
			 0.658428  0.332721 -0.675107
			 0.380198  0.221360  0.898025
			-0.038219 -0.002040  0.999267
			-0.406746 -0.243526  0.880484
			-0.748732 -0.509262  0.424325
			-0.795099 -0.529778 -0.295218
			-0.594874 -0.373990 -0.711517
			 0.202269  0.174564 -0.963647
			-0.283276 -0.132284 -0.949871
			 0.183654 -0.171241 -0.967961
			 0.999238 -0.034621  0.018041
			 0.139150  0.155137  0.978044
			-0.981488  0.052603  0.184159
			 0.848890  0.467491 -0.246651
			 0.713956  0.464660  0.523792
			 0.483229  0.336189  0.808373
			 0.360270  0.242268 -0.900839
			 0.069671  0.053019  0.996160
			-0.394543 -0.251818  0.883699
			-0.769328 -0.493893  0.405221
			-0.594892 -0.415422 -0.688134
			-0.802333 -0.558546 -0.210449
			-0.127546  0.012812 -0.991750
			 0.991793 -0.047919 -0.118531
			-0.196009 -0.186596 -0.962685
			 0.247197  0.184132  0.951309
			-0.950227  0.132736  0.281869
			 0.522152  0.263996 -0.810965
			 0.819166  0.571179  0.052162
			 0.632677  0.491534  0.598426
			 0.333273  0.317503  0.887762
			 0.225655  0.153012 -0.962116
			-0.053897  0.000365  0.998546
			-0.471833 -0.343144  0.812173
			-0.793345 -0.548229  0.264666
			-0.569549 -0.417748 -0.707885
			-0.124066 -0.057709 -0.990594
			-0.767560 -0.549743 -0.329597
			 0.972020 -0.114510 -0.205096
			-0.250765 -0.122361 -0.960284
			 0.285782  0.158062  0.945170
			-0.953255  0.151156  0.261641
			 0.337074  0.226348 -0.913864
			 0.834859  0.537408 -0.119176
			 0.589874  0.459917  0.663721
			 0.302277  0.240877  0.922283
			 0.152396  0.162481 -0.974872
			-0.108827 -0.071709  0.991471
			-0.578697 -0.399776  0.710837
			-0.825675 -0.549888  0.126032
			-0.738673 -0.487423 -0.465597
			-0.226474 -0.065784 -0.971793
			 0.968843 -0.116212 -0.218717
			-0.307643 -0.108461 -0.945300
			 0.236606  0.128872  0.963021
			-0.946923  0.053498  0.316978
			 0.740241  0.463812 -0.486747
			 0.654930  0.367168  0.660496
			 0.299351  0.162191  0.940257
			 0.134884  0.154024 -0.978817
			 0.214800  0.126083 -0.968485
			-0.150458 -0.099185  0.983628
			-0.628384 -0.405301  0.663976
			-0.850192 -0.520101  0.081661
			-0.773926 -0.482788 -0.409822
			-0.382903 -0.209321 -0.899761
			 0.939939  0.063152 -0.335451
			-0.450636 -0.102877 -0.886760
			 0.383756  0.156547  0.910068
			-0.877151 -0.146367  0.457365
			 0.779175  0.432609  0.453582
			 0.764855  0.442420 -0.468253
			 0.516646  0.289329  0.805832
			 0.212633  0.089324  0.973041
			-0.079631 -0.052038 -0.995465
			 0.140316  0.105584 -0.984461
			 0.233309  0.173382 -0.956821
			-0.266786 -0.181537  0.946504
			-0.776607 -0.393394  0.492059
			-0.892924 -0.435325 -0.114802
			-0.702390 -0.367980 -0.609294
			 0.742951  0.271268 -0.611912
			-0.680000 -0.216447 -0.700536
			 0.342168  0.070134  0.937018
			-0.877543 -0.332556  0.345435
			 0.542275  0.258894  0.799320
			 0.813303  0.437144  0.383982
			 0.760799  0.408861 -0.504001
			 0.168637  0.031906  0.985162
			-0.601702 -0.246765 -0.759646
			 0.259028  0.062477 -0.963847
			 0.134408  0.071315 -0.988356
			 0.282183  0.124676 -0.951225
			-0.470913 -0.236798  0.849804
			-0.899493 -0.335428  0.280000
			-0.923232 -0.322154 -0.209426
			-0.627390 -0.219500 -0.747128
			 0.720143  0.411774 -0.558423
			-0.650598 -0.458140  0.605665
			 0.540408  0.097272  0.835761
			 0.563775  0.261358  0.783486
			 0.858661  0.453431  0.238959
			 0.657856  0.284324 -0.697413
			 0.139259 -0.036290  0.989591
			-0.564673 -0.262708 -0.782387
			-0.930551 -0.319548 -0.178784
			 0.198981  0.058705 -0.978244
			 0.327190  0.067468 -0.942547
			 0.151676  0.046024 -0.987358
			-0.508193 -0.289838  0.811008
			-0.888545 -0.322389  0.326425
			-0.522780 -0.132779 -0.842063
			-0.630278 -0.518024  0.578274
			 0.724757  0.560796 -0.400295
			 0.571822  0.002053  0.820375
			 0.698598  0.297440  0.650762
			 0.403560  0.034073  0.914318
			 0.877694  0.479080 -0.011682
			 0.404295  0.277272 -0.871588
			-0.265515 -0.274008  0.924349
			-0.929037 -0.319717 -0.186204
			-0.772975 -0.249467 -0.583331
			-0.169126 -0.041457 -0.984722
			-0.865103 -0.383704  0.323061
			 0.333078  0.189960 -0.923566
			 0.015107  0.116103 -0.993122
			 0.612528  0.225544 -0.757588
			-0.398128  0.150045 -0.904976
			-0.647675 -0.683768  0.336122
			 0.565793 -0.122942  0.815330
			 0.674341  0.685427 -0.274691
			 0.793417  0.373320  0.480750
			 0.568115  0.137057  0.811456
			-0.001455 -0.214682  0.976683
			 0.616621  0.596211 -0.514111
			-0.750270 -0.435788  0.497175
			-0.918581 -0.393336  0.038668
			-0.903070 -0.377510 -0.204820
			-0.871564 -0.267038 -0.411179
			-0.466028  0.036024 -0.884036
			 0.419981  0.341397 -0.840871
			 0.430988  0.331242 -0.839362
			 0.071988  0.332592 -0.940319
			-0.144413  0.346399 -0.926905
			-0.787911 -0.604042 -0.119706
			 0.254171 -0.413263  0.874420
			 0.710475  0.692333  0.126100
			 0.808661  0.551419  0.204950
			 0.605627  0.683946  0.406736
			 0.301638  0.762777  0.572001
			 0.754946  0.270247  0.597515
			 0.379867 -0.008313  0.925004
			 0.559639  0.079049  0.824958
			 0.448120  0.023159  0.893673
			 0.050640 -0.251138  0.966626
			-0.378767 -0.584483  0.717576
			 0.670235  0.569593 -0.475762
			-0.696502 -0.705977  0.128377
			-0.847731 -0.501156  0.173766
			-0.866255 -0.494430  0.071699
			-0.913928 -0.405081  0.025403
			-0.888833 -0.443028 -0.117060
			-0.937780 -0.256755 -0.233763
			-0.909969 -0.359968 -0.205862
			-0.729858 -0.259173 -0.632564
			-0.895901 -0.203438 -0.394936
			-0.340914  0.048896 -0.938822
			 0.015757  0.550802 -0.834487
			-0.215094  0.976395 -0.019689
			 0.065068  0.580197 -0.811873
			 0.183255  0.405045 -0.895743
			 0.028925  0.272876 -0.961614
			-0.687749 -0.409104 -0.599695
			-0.173077 -0.468567  0.866308
			 0.677022  0.686455  0.265369
			-0.588190  0.807436  0.045607
			 0.876364  0.477714  0.061437
			 0.811023  0.331033  0.482348
			 0.000000  0.000000  0.000000
			-0.572961  0.817466 -0.058868
			 0.695973  0.192975  0.691652
			 0.401087 -0.021827  0.915780
			 0.472628 -0.029975  0.880752
			 0.497864 -0.024073  0.866921
			-0.504180 -0.833754  0.225070
			 0.304447 -0.116134  0.945423
			-0.210760 -0.409691  0.887544
			-0.647564 -0.518298  0.558595
			 0.266498  0.482913 -0.834131
			 0.669623  0.570284 -0.475795
			-0.847574 -0.511568  0.141126
			-0.887554 -0.450769 -0.095160
			-0.862588 -0.326687 -0.386288
			-0.891548 -0.411713 -0.188773
			-0.910277 -0.366121 -0.193264
			-0.729095 -0.123279 -0.673218
			-0.772221 -0.184375 -0.608013
			-0.620802 -0.126411 -0.773709
			-0.545250 -0.203171 -0.813280
			 0.000000  0.000000  0.000000
			-0.247113  0.092609 -0.964551
			-0.731362  0.645465  0.220194
			 0.314477  0.315176 -0.895415
			 0.142697  0.981749  0.125723
			 0.826699  0.446033 -0.342963
			-0.177132  0.946771  0.268791
			-0.144624  0.387749  0.910349
			 0.086705  0.347168 -0.933786
			-0.645227 -0.699400 -0.307443
			 0.076302  0.239286 -0.967946
			-0.114396 -0.265892  0.957191
			 0.756950  0.600670  0.257338
			 0.583812  0.615248 -0.529749
			 0.844687  0.525250  0.103035
			 0.805567  0.321710  0.497559
			 0.705971  0.101453  0.700937
			 0.138790 -0.229418  0.963382
			 0.456439 -0.084484  0.885735
			-0.489857 -0.417748  0.765197
			-0.825472 -0.445998  0.345951
			 0.125075  0.460594 -0.878754
			-0.900499 -0.430000  0.064819
			-0.894572 -0.409371 -0.179319
			-0.810540 -0.259152 -0.525228
			-0.899060 -0.384015 -0.210294
			-0.902107 -0.348390 -0.254613
			-0.900406 -0.397362 -0.177124
			-0.641427 -0.116118 -0.758346
			-0.286856  0.038056 -0.957217
			 0.054037  0.337970 -0.939604
			 0.750445  0.547050 -0.370901
			 0.747411  0.523374 -0.409214
			 0.279043  0.514049 -0.811103
			-0.815490 -0.533590 -0.224183
			 0.117122  0.196517 -0.973480
			-0.189936 -0.229833  0.954516
			 0.713841  0.643787  0.275625
			 0.591927  0.635055 -0.496314
			 0.827419  0.513201  0.228040
			 0.802628  0.295621  0.518070
			 0.650406  0.105166  0.752271
			-0.130091 -0.303908  0.943778
			 0.263509 -0.165386  0.950374
			-0.707959 -0.447913  0.546048
			-0.854444 -0.485556  0.184826
			 0.073477  0.458999 -0.885393
			-0.895940 -0.441180 -0.051504
			-0.887101 -0.339747 -0.312447
			-0.754135 -0.179436 -0.631730
			-0.515535  0.008097 -0.856830
			-0.284113  0.186274 -0.940522
			 0.369595  0.524184 -0.767223
			 0.799381  0.572761 -0.181479
			 0.799039  0.566517 -0.201484
			 0.761218  0.592869 -0.262780
			 0.227646  0.481422 -0.846410
			-0.721015 -0.660513 -0.209427
			 0.088285  0.147000 -0.985189
			-0.124901 -0.226949  0.965864
			 0.717733  0.670306  0.188546
			 0.590748  0.652451 -0.474684
			 0.858717  0.463169  0.219272
			 0.813063  0.304772  0.496027
			 0.673582  0.117072  0.729782
			-0.438226 -0.429073  0.789845
			-0.236372 -0.444476  0.864043
			 0.381703 -0.148655  0.912252
			-0.783231 -0.490395  0.382181
			-0.878796 -0.466897  0.098614
			 0.177563  0.450599 -0.874889
			-0.900608 -0.395235 -0.180818
			-0.843936 -0.253452 -0.472793
			-0.652684 -0.084374 -0.752918
			-0.401269  0.078487 -0.912592
			 0.313992  0.495903 -0.809623
			 0.812307  0.571784 -0.114982
			 0.837990  0.543901 -0.044106
			 0.478953  0.516550 -0.709775
			-0.690413 -0.702854 -0.171249
			 0.009532  0.222571 -0.974870
			-0.050606 -0.251502  0.966533
			 0.718003  0.679588  0.150437
			 0.643737  0.635994 -0.425574
			 0.864764  0.494075  0.089853
			 0.817045  0.289410  0.498677
			 0.664720  0.088857  0.741790
			-0.679804 -0.526563  0.510488
			 0.228147 -0.249682  0.941068
			-0.292843 -0.477734  0.828259
			-0.697155 -0.545459  0.465242
			-0.854501 -0.473627  0.213322
			-0.916590 -0.396734 -0.049639
			 0.213376  0.565280 -0.796825
			-0.883659 -0.315417 -0.345918
			-0.741527 -0.160121 -0.651536
			-0.403135  0.072507 -0.912264
			 0.138954  0.400753 -0.905588
			 0.748734  0.594340 -0.293527
			 0.727263  0.594532 -0.342959
			-0.733364 -0.632685 -0.248771
			 0.038207  0.238015 -0.970510
			-0.096840 -0.235276  0.967092
			 0.648329  0.742752  0.167299
			 0.344629  0.644771 -0.682277
			 0.690869  0.642379 -0.331736
			 0.851727  0.403542  0.334239
			 0.786518  0.246171  0.566383
			 0.577155  0.009839  0.816575
			 0.071053 -0.328686  0.941763
			-0.458022 -0.573397  0.679288
			-0.877686 -0.474252  0.068936
			-0.770559 -0.574438  0.276150
			-0.915901 -0.332376 -0.225060
			 0.056756  0.608305 -0.791671
			 0.441655  0.719149 -0.536438
			-0.814595 -0.219097 -0.537058
			-0.437162  0.137289 -0.888843
			 0.317757  0.557170 -0.767197
			 0.751898  0.623597 -0.213954
			 0.805536  0.591337 -0.037834
			-0.658522 -0.704278 -0.265220
			 0.064920  0.254771 -0.964820
			-0.043944 -0.223170  0.973789
			 0.677378  0.712929  0.181359
			 0.216882  0.608634 -0.763234
			 0.732685  0.655066 -0.184558
			 0.842788  0.407856  0.351231
			 0.787778  0.235786  0.569043
			 0.545647 -0.032496  0.837385
			 0.059005 -0.391237  0.918396
			-0.410173 -0.620795  0.668111
			-0.699774 -0.645171  0.306708
			-0.848424 -0.529301  0.004152
			-0.882586 -0.415209 -0.220553
			-0.832029 -0.553522  0.036631
			-0.829201 -0.264901 -0.492192
			 0.316320  0.569094 -0.758995
			 0.756808  0.622385 -0.199695
			-0.513051  0.090895 -0.853532
			 0.243687  0.615265 -0.749710
			 0.715129  0.653940 -0.246888
			-0.656868 -0.704704 -0.268172
			 0.059626  0.285906 -0.956401
			-0.029045 -0.296335  0.954642
			 0.647936  0.725729  0.231292
			 0.395664  0.627481 -0.670610
			 0.735903  0.673685 -0.067790
			 0.795383  0.483089  0.366047
			 0.727907  0.230358  0.645822
			 0.401585 -0.072452  0.912952
			-0.128630 -0.420577  0.898092
			-0.599136 -0.630735  0.493162
			-0.782266 -0.619346  0.066861
			-0.873810 -0.447783 -0.189595
			-0.839810 -0.330204 -0.430911
			-0.845774 -0.507413 -0.164919
			 0.625210  0.611295 -0.485212
			 0.690959  0.661774 -0.290914
			-0.605679  0.029058 -0.795178
			 0.195698  0.579816 -0.790895
			-0.668111 -0.692542 -0.272055
			 0.010525  0.262385 -0.964906
			-0.016439 -0.365844  0.930531
			 0.624759  0.749824  0.217809
			 0.615436  0.741644 -0.266839
			 0.295762  0.707072 -0.642319
			 0.832075  0.472475  0.290548
			 0.699580  0.233055  0.675480
			 0.353167 -0.059918  0.933640
			-0.160226 -0.422152  0.892253
			-0.547245 -0.604509  0.578872
			-0.758469 -0.633342  0.153631
			-0.837592 -0.512290 -0.189735
			-0.844953 -0.371989 -0.384289
			-0.849229 -0.299402 -0.434936
			 0.522880  0.754068 -0.397465
			 0.586584  0.738421 -0.332646
			 0.071784  0.611637 -0.787875
			-0.727212 -0.022789 -0.686034
			-0.561679 -0.794447 -0.231020
			-0.096121  0.022815 -0.995108
			 0.137201  0.389148 -0.910901
			-0.003321 -0.384090  0.923290
			 0.576629  0.801840  0.156689
			 0.352426  0.621033 -0.700081
			 0.731136  0.631149 -0.259019
			 0.328084  0.644923 -0.690243
			 0.841292  0.529325  0.109743
			 0.800315  0.404790  0.442313
			 0.636050  0.206687  0.743452
			 0.300555 -0.097869  0.948730
			-0.241493 -0.467141  0.850565
			-0.719044 -0.592196  0.363703
			-0.861012 -0.508277 -0.017667
			-0.854466 -0.424145 -0.299981
			-0.808914 -0.241867 -0.535872
			-0.332972  0.444781 -0.831444
			 0.531146  0.764531 -0.365208
			 0.593349  0.702917 -0.392230
			-0.529818 -0.840329 -0.114627
			-0.108243  0.043665 -0.993165
			 0.088037  0.372417 -0.923881
			-0.171884 -0.486124  0.856819
			 0.011103 -0.239685  0.970787
			 0.566909  0.817880  0.098424
			 0.293104  0.579630 -0.760341
			 0.681756  0.630562 -0.370946
			 0.488619  0.624839 -0.608955
			 0.832847  0.529826  0.160155
			 0.799936  0.376641  0.467165
			 0.654151  0.140692  0.743163
			 0.300899 -0.160076  0.940125
			-0.691063 -0.528221  0.493370
			-0.193053 -0.390799  0.900004
			-0.883997 -0.465459  0.043559
			-0.901665 -0.362112 -0.236377
			-0.829124 -0.143137 -0.540431
			-0.169917  0.498222 -0.850237
			 0.599375  0.668236 -0.440692
			-0.637997 -0.769941 -0.012264
			-0.184146  0.106926 -0.977066
			 0.065705  0.394185 -0.916679
			-0.190737 -0.401347  0.895846
			 0.104408 -0.123073  0.986890
			 0.683145  0.729251  0.038815
			 0.442525  0.725898 -0.526539
			 0.496872  0.734475 -0.462239
			 0.055305  0.714145 -0.697809
			 0.830043  0.495389  0.256159
			 0.768949  0.324903  0.550596
			 0.491300  0.003857  0.870982
			-0.081892 -0.243590  0.966415
			-0.616819 -0.345016  0.707459
			-0.924659 -0.328293  0.192950
			-0.975552 -0.159017 -0.151696
			-0.890309  0.128817 -0.436757
			-0.762722 -0.644874 -0.048925
			-0.124822  0.286326 -0.949967
			 0.122951  0.409627 -0.903930
			 0.038698 -0.319308  0.946860
			 0.646514  0.755278  0.107584
			-0.061570  0.807822 -0.586202
			 0.454440  0.768136 -0.451056
			 0.098748  0.695338 -0.711866
			 0.746437  0.662019 -0.067542
			 0.097188  0.681498 -0.725338
			 0.835648  0.380562  0.396061
			 0.661185  0.115237  0.741320
			 0.027362 -0.249623  0.967957
			-0.674194 -0.388833  0.627911
			-0.945429 -0.316465  0.077551
			-0.978317 -0.024306 -0.205684
			-0.866261  0.289063 -0.407474
			-0.464325 -0.358123 -0.810031
			-0.015627  0.449923 -0.892931
			 0.117898 -0.347270  0.930324
			 0.675554  0.734739 -0.061525
			-0.462185  0.685040 -0.563121
			 0.182476  0.791810 -0.582872
			 0.506643  0.761543 -0.404186
			 0.871663  0.299710  0.387786
			 0.630211  0.019379  0.776182
			 0.160224 -0.404831  0.900245
			-0.497305 -0.598843  0.627754
			-0.874638 -0.470977  0.114846
			-0.944664 -0.105378 -0.310654
			-0.631381 -0.624296 -0.460014
			 0.009849  0.306588 -0.951791
			 0.101061 -0.311805  0.944756
			 0.730242  0.678963 -0.075868
			-0.476314  0.505027 -0.719773
			 0.134024  0.764089 -0.631035
			 0.056230  0.754221 -0.654208
			 0.666443  0.730584 -0.148660
			 0.850283  0.456232  0.262433
			 0.737718  0.030872  0.674403
			 0.382470 -0.402794  0.831549
			-0.207155 -0.700782  0.682635
			-0.696902 -0.685976  0.209201
			-0.895614 -0.355104 -0.267912
			-0.023793 -0.934599 -0.354907
			 0.192880 -0.245706 -0.949961
			 0.426434 -0.692327  0.582098
			 0.784275 -0.594760 -0.176559
			-0.462226  0.420790 -0.780566
			 0.128336  0.781721 -0.610281
			 0.367901  0.792132 -0.487006
			 0.839881  0.534582  0.093926
			 0.783120  0.092859  0.614898
			 0.519670 -0.251062  0.816647
			 0.077241 -0.606218  0.791539
			-0.500838 -0.802485  0.324314
			-0.856800 -0.475723 -0.198949
			-0.524320  0.428457 -0.735876
			 0.042365  0.716400 -0.696402
			 0.396513  0.745665 -0.535501
			 0.857058  0.505212  0.101057
			 0.811130  0.099922  0.576267
			 0.343776 -0.180848  0.921473
			-0.115414 -0.624153  0.772730
			-0.840119 -0.434143 -0.325145
			-0.644124 -0.735186  0.211201
			-0.384573  0.298195 -0.873604
			 0.104233  0.564904 -0.818547
			 0.437013  0.726241 -0.530654
			 0.858485  0.511441  0.037842
			 0.513148  0.089629  0.853608
			 0.145282 -0.011037  0.989329
			-0.776183 -0.630006  0.025140
			-0.095376 -0.403346  0.910063
			-0.784187 -0.254645 -0.565868
			 0.116727  0.451183 -0.884765
			-0.488221  0.238815 -0.839409
			 0.506696  0.633722 -0.584512
			 0.690012  0.548246  0.472557
			 0.177387  0.150119  0.972625
			-0.455241 -0.372184  0.808848
			-0.880948 -0.342415 -0.326624
			-0.763122 -0.041684 -0.644909
			 0.417401  0.523981 -0.742443
			-0.200929  0.394435 -0.896688
			-0.742212  0.113352 -0.660509
			 0.665299  0.568197  0.484282
			 0.232109  0.198820  0.952153
			-0.921572 -0.110779  0.372066
			-0.250123  0.844959 -0.472740
			 0.428385  0.889396 -0.159565
			-0.595345  0.646369 -0.477255
			-0.668379  0.625959  0.401803
			 0.032910  0.661949  0.748826
			-0.208553  0.787968  0.579320
		</DataArray>
	</PointData>
	<Points>
		<DataArray type="Float32" NumberOfComponents="3" format="ascii">
			 0.054073 -0.380904 -0.123480
			 0.054293 -0.382323 -0.122174
			 0.054097 -0.382759 -0.119345
			 0.053210 -0.377394 -0.123755
			 0.057676 -0.386449 -0.123547
			 0.055259 -0.386201 -0.121989
			 0.052761 -0.378800 -0.116305
			 0.056207 -0.387277 -0.122385
			 0.053722 -0.383334 -0.116584
			 0.055447 -0.388108 -0.121732
			 0.049202 -0.368953 -0.118573
			 0.049222 -0.367670 -0.126428
			 0.055380 -0.375433 -0.128054
			 0.058296 -0.386180 -0.123759
			 0.057764 -0.375387 -0.123798
			 0.056874 -0.380098 -0.118427
			 0.056455 -0.376743 -0.118984
			 0.055186 -0.388762 -0.116395
			 0.057354 -0.387889 -0.117707
			 0.049196 -0.369339 -0.116209
			 0.057169 -0.386824 -0.122970
			 0.054963 -0.389394 -0.116140
			 0.059760 -0.392902 -0.123300
			 0.057069 -0.394521 -0.120667
			 0.045365 -0.359969 -0.116276
			 0.044671 -0.359330 -0.122095
			 0.047300 -0.356937 -0.129726
			 0.051542 -0.366015 -0.130346
			 0.053341 -0.365277 -0.130025
			 0.054499 -0.365593 -0.124945
			 0.058616 -0.386270 -0.122637
			 0.058648 -0.386649 -0.120049
			 0.058778 -0.387247 -0.119509
			 0.057713 -0.380453 -0.120621
			 0.052345 -0.367610 -0.118346
			 0.057472 -0.381180 -0.119559
			 0.058184 -0.387105 -0.118495
			 0.060397 -0.393274 -0.118748
			 0.057121 -0.395236 -0.115598
			 0.061789 -0.398771 -0.122333
			 0.059355 -0.400251 -0.119843
			 0.048494 -0.358254 -0.118379
			 0.042048 -0.350333 -0.116590
			 0.041076 -0.350139 -0.120419
			 0.049798 -0.355522 -0.131688
			 0.042780 -0.347572 -0.131625
			 0.051091 -0.355813 -0.126393
			 0.057762 -0.381649 -0.120136
			 0.062280 -0.399168 -0.118071
			 0.059261 -0.400992 -0.115064
			 0.063468 -0.404750 -0.121720
			 0.061182 -0.406203 -0.118949
			 0.045263 -0.348669 -0.118147
			 0.037636 -0.340961 -0.118243
			 0.035085 -0.341363 -0.122669
			 0.045532 -0.346196 -0.132659
			 0.047670 -0.345537 -0.130936
			 0.048263 -0.346246 -0.124961
			 0.034828 -0.340230 -0.130345
			 0.036247 -0.339138 -0.133238
			 0.040703 -0.337070 -0.133925
			 0.064477 -0.404864 -0.117761
			 0.061517 -0.406628 -0.114980
			 0.065400 -0.410588 -0.121272
			 0.063135 -0.411892 -0.119447
			 0.041568 -0.339013 -0.119611
			 0.033539 -0.331675 -0.118513
			 0.028228 -0.333804 -0.119762
			 0.024704 -0.334767 -0.123365
			 0.043614 -0.336115 -0.131930
			 0.044641 -0.336549 -0.126479
			 0.028656 -0.331091 -0.135323
			 0.025955 -0.332943 -0.131220
			 0.033620 -0.328938 -0.135160
			 0.037988 -0.327408 -0.132769
			 0.066003 -0.410869 -0.117451
			 0.063357 -0.412435 -0.115036
			 0.066301 -0.416846 -0.121186
			 0.063836 -0.418232 -0.119436
			 0.037423 -0.329514 -0.121316
			 0.026163 -0.323852 -0.118637
			 0.031354 -0.321121 -0.121418
			 0.019383 -0.326621 -0.119919
			 0.016252 -0.327362 -0.123824
			 0.017052 -0.326255 -0.128482
			 0.039444 -0.327508 -0.128213
			 0.021209 -0.323318 -0.135330
			 0.026484 -0.321018 -0.135235
			 0.032516 -0.318954 -0.131629
			 0.033844 -0.318931 -0.128179
			 0.067220 -0.416928 -0.117734
			 0.064115 -0.418714 -0.115251
			 0.066331 -0.423491 -0.121184
			 0.064101 -0.424887 -0.118629
			 0.023820 -0.313933 -0.118060
			 0.019355 -0.316150 -0.116483
			 0.028913 -0.310503 -0.125417
			 0.013295 -0.318469 -0.118590
			 0.010047 -0.319232 -0.122673
			 0.013502 -0.315862 -0.134091
			 0.010298 -0.318311 -0.127672
			 0.016868 -0.313955 -0.136740
			 0.022110 -0.311809 -0.135774
			 0.028920 -0.309798 -0.129737
			 0.067608 -0.423463 -0.117364
			 0.064962 -0.425028 -0.114950
			 0.067683 -0.426575 -0.118612
			 0.066262 -0.426901 -0.120853
			 0.064129 -0.428327 -0.117781
			 0.023371 -0.302104 -0.124128
			 0.016335 -0.306368 -0.116890
			 0.010454 -0.309059 -0.116218
			 0.005165 -0.310864 -0.119410
			 0.003425 -0.310623 -0.125604
			 0.006121 -0.308236 -0.133015
			 0.009869 -0.305921 -0.137143
			 0.014508 -0.303664 -0.138500
			 0.022389 -0.300950 -0.133896
			 0.025318 -0.300318 -0.129861
			 0.065831 -0.427987 -0.114761
			 0.067741 -0.429903 -0.118441
			 0.065979 -0.430398 -0.120590
			 0.064406 -0.431632 -0.117078
			 0.020782 -0.291435 -0.128840
			 0.018536 -0.293408 -0.122757
			 0.013016 -0.296758 -0.117051
			 0.007339 -0.299487 -0.115594
			 0.002016 -0.301576 -0.117124
			-0.001644 -0.302535 -0.121117
			-0.002617 -0.302075 -0.126589
			 0.000661 -0.299351 -0.134499
			 0.006791 -0.295788 -0.139873
			 0.005762 -0.296250 -0.139810
			 0.018190 -0.291984 -0.132470
			 0.066845 -0.430922 -0.114273
			 0.066323 -0.433640 -0.120110
			 0.067870 -0.433262 -0.117834
			 0.066920 -0.434310 -0.113644
			 0.064135 -0.435123 -0.116822
			 0.016338 -0.282531 -0.127690
			 0.014153 -0.284301 -0.122694
			 0.015301 -0.282480 -0.130815
			 0.009187 -0.287205 -0.118236
			 0.001832 -0.290790 -0.116048
			-0.003833 -0.293060 -0.117390
			-0.007903 -0.294241 -0.121127
			-0.008394 -0.293658 -0.126047
			-0.002815 -0.289411 -0.137123
			 0.001872 -0.286854 -0.140197
			 0.000482 -0.287452 -0.140271
			 0.065987 -0.437192 -0.119641
			 0.067900 -0.436766 -0.116544
			 0.066437 -0.437886 -0.113464
			 0.064151 -0.438570 -0.115968
			 0.011739 -0.273126 -0.130050
			 0.010407 -0.274489 -0.125255
			 0.005616 -0.277577 -0.119191
			 0.003356 -0.275924 -0.135491
			-0.001229 -0.281092 -0.116050
			-0.009782 -0.284531 -0.118001
			-0.013414 -0.285612 -0.121172
			-0.009485 -0.281466 -0.136086
			-0.014258 -0.285052 -0.126903
			-0.005814 -0.279428 -0.138713
			 0.067975 -0.440153 -0.115915
			 0.065190 -0.440967 -0.119093
			 0.066982 -0.441046 -0.112911
			 0.064180 -0.442010 -0.115120
			 0.004012 -0.264971 -0.133173
			 0.006382 -0.264414 -0.130192
			 0.004300 -0.266135 -0.125218
			-0.003584 -0.270855 -0.117468
			 0.000174 -0.266451 -0.134440
			-0.009633 -0.273731 -0.116111
			-0.015852 -0.276110 -0.118278
			-0.019689 -0.276980 -0.123303
			-0.015843 -0.273309 -0.135518
			-0.011736 -0.271028 -0.138462
			-0.019853 -0.276360 -0.127566
			 0.067582 -0.443764 -0.115221
			 0.064797 -0.444578 -0.118398
			 0.066742 -0.444631 -0.111914
			 0.063787 -0.445620 -0.114426
			-0.001350 -0.256182 -0.133798
			 0.000294 -0.255733 -0.132119
			-0.003416 -0.258683 -0.123982
			-0.010618 -0.262760 -0.118346
			-0.004182 -0.257381 -0.134079
			-0.019399 -0.266881 -0.116708
			-0.023269 -0.268255 -0.118716
			-0.025845 -0.268503 -0.124157
			-0.025096 -0.267077 -0.130919
			-0.019403 -0.263483 -0.137659
			 0.067310 -0.447255 -0.114964
			 0.064409 -0.448188 -0.117691
			 0.065935 -0.448410 -0.111369