<?xml version="1.0"?>
<VTKFile type="PolyData" version="0.1" byte_order="LittleEndian" compressor="vtkZLibDataCompressor">
	<PolyData>
		<Piece NumberOfPoints="653" NumberOfVerts="0" NumberOfLines="0" NumberOfStrips="0" NumberOfPolys="1299">
		<PointData Normals="Normals">
		<DataArray type="Float32" Name="Normals" NumberOfComponents="3" format="ascii">
			 0.596263  0.108451 -0.795430
			 0.844532  0.435264 -0.311947
			 0.837366  0.460617 -0.294365
			-0.511267 -0.055907 -0.857602
			-0.024289  0.117027 -0.992832
			-0.175891 -0.415190 -0.892569
			 0.397055  0.214354 -0.892412
			 0.876984  0.411676  0.247836
			 0.912050  0.405174 -0.063231
			 0.273521  0.274935 -0.921736
			 0.857117  0.514813 -0.017848
			 0.830614  0.417702  0.368246
			-0.469486 -0.259804 -0.843851
			-0.569057 -0.183990 -0.801450
			-0.694055  0.281570 -0.662575
			-0.696214 -0.145363 -0.702962
			-0.424851 -0.146382 -0.893350
			 0.197379  0.189955 -0.961748
			 0.874607  0.441280 -0.200832
			 0.816217  0.249387  0.521149
			 0.812821  0.332287  0.478443
			 0.784158  0.317606  0.533125
			 0.164680  0.273436 -0.947689
			-0.549598 -0.281321 -0.786639
			 0.776272  0.300613  0.554106
			 0.823697  0.548835 -0.142492
			 0.761623  0.386638  0.520039
			 0.669399  0.243547  0.701848
			-0.591764 -0.322618 -0.738738
			-0.793263 -0.492618 -0.357856
			-0.589983 -0.284583 -0.755601
			-0.721724 -0.412525 -0.555822
			-0.758552 -0.415245 -0.502165
			-0.196503  0.028673 -0.980084
			 0.628901  0.431800 -0.646554
			 0.868382  0.418208  0.266485
			 0.356123 -0.187171  0.915501
			 0.622211  0.111019  0.774937
			 0.192231 -0.194529  0.961876
			 0.211661 -0.128879  0.968808
			 0.608269  0.279787  0.742784
			 0.131187  0.281094 -0.950672
			-0.603706 -0.229867 -0.763348
			-0.709360 -0.437387 -0.552721
			-0.711123 -0.429880 -0.556334
			 0.392618  0.025569  0.919346
			 0.511210  0.191504  0.837849
			 0.787460  0.541447 -0.294520
			 0.781441  0.426635  0.455337
			 0.688595  0.386105  0.613807
			 0.106456 -0.072097  0.991700
			-0.580991 -0.260349 -0.771147
			-0.863125 -0.496005 -0.094842
			-0.654677 -0.603027  0.455803
			-0.798118 -0.599621 -0.058839
			-0.535764 -0.211081 -0.817558
			-0.757162 -0.487709 -0.434563
			-0.856321 -0.512431 -0.064263
			-0.838807 -0.543029 -0.039024
			-0.878109 -0.478253 -0.014062
			 0.215979  0.245845 -0.944941
			-0.362140 -0.100094 -0.926734
			 0.892038  0.403965 -0.202681
			 0.671313  0.281811  0.685508
			 0.004198 -0.618545  0.785738
			 0.134715 -0.255120  0.957479
			-0.156416 -0.467878  0.869842
			-0.446573 -0.550406  0.705426
			 0.024649 -0.206415  0.978154
			 0.195610 -0.042959  0.979740
			 0.221425  0.317374 -0.922087
			-0.577137 -0.191507 -0.793875
			-0.762609 -0.436764 -0.477143
			-0.818822 -0.565437 -0.099052
			-0.823198 -0.532929 -0.195784
			-0.521014 -0.433601  0.735211
			-0.346348 -0.371097  0.861586
			-0.434711 -0.356592  0.826963
			 0.333394  0.187563  0.923942
			 0.852318  0.519836 -0.057661
			 0.713282  0.393836  0.579761
			 0.786814  0.428943  0.443771
			 0.425505  0.257959  0.867411
			-0.661579 -0.432560  0.612540
			-0.848135 -0.529643 -0.012061
			-0.620252 -0.678734  0.393201
			-0.638473 -0.605702  0.474844
			-0.623034 -0.359243 -0.694819
			-0.791929 -0.596720 -0.129512
			-0.155124 -0.063417 -0.985857
			 0.469857  0.195912 -0.860728
			-0.483003 -0.273349 -0.831859
			 0.906689  0.329401  0.263458
			 0.513505  0.211966  0.831494
			-0.550878 -0.511985  0.659094
			-0.085439 -0.126785  0.988244
			 0.139398  0.313292 -0.939370
			-0.698583 -0.332859 -0.633393
			 0.761079  0.547198 -0.348330
			-0.763001 -0.438068 -0.475316
			-0.473564 -0.340706  0.812192
			-0.829658 -0.556045 -0.049824
			 0.835050  0.488736  0.252642
			 0.730027  0.450645  0.513789
			 0.037427  0.003424  0.999293
			-0.570310 -0.451085  0.686490
			-0.731462 -0.516306 -0.445412
			-0.702605 -0.558316  0.441168
			-0.470208 -0.265728 -0.841601
			 0.033638  0.016057 -0.999305
			 0.749402  0.242689 -0.616035
			 0.846162  0.290097  0.447051
			 0.465077  0.163247  0.870088
			-0.137162 -0.174074  0.975133
			 0.614670  0.511039 -0.600850
			-0.522883 -0.149152 -0.839254
			-0.787823 -0.429561 -0.441376
			 0.837824  0.543274  0.053886
			-0.824565 -0.539357 -0.170843
			 0.760361  0.481632  0.435754
			 0.312371  0.210822  0.926271
			-0.697680 -0.481224  0.530723
			-0.705482 -0.565033  0.427824
			-0.743956 -0.495721 -0.448097
			-0.502000 -0.268748 -0.822053
			-0.139296 -0.043103 -0.989312
			 0.841043  0.336566 -0.423522
			 0.667770  0.241514  0.704098
			 0.341934  0.065868  0.937413
			-0.166452 -0.219328  0.961348
			 0.540137  0.427645 -0.724826
			-0.347525 -0.095728 -0.932772
			 0.823200  0.552603 -0.130276
			-0.777334 -0.505317 -0.374709
			 0.787924  0.512159  0.341862
			-0.823923 -0.560924 -0.080723
			 0.720700  0.502106  0.477996
			-0.688173 -0.403579  0.602945
			 0.075282  0.128154  0.988893
			-0.729292 -0.538549  0.422016
			-0.750068 -0.512599 -0.417900
			-0.463841 -0.281979 -0.839845
			-0.174646 -0.058344 -0.982901
			 0.633563  0.261425 -0.728186
			 0.876363  0.366626  0.312368
			 0.628894  0.238347  0.740057
			 0.269738  0.029153  0.962492
			-0.208493 -0.255115  0.944165
			 0.561480  0.474223 -0.678125
			-0.210840 -0.110951 -0.971204
			-0.759872 -0.564272 -0.322788
			 0.798476  0.601966 -0.008563
			-0.763376 -0.547324 -0.343065
			 0.770910  0.573098  0.277950
			 0.734845  0.551993  0.394089
			-0.813514 -0.577196 -0.070991
			 0.315538  0.311480  0.896335
			-0.660120 -0.427935  0.617344
			-0.730390 -0.532589  0.427644
			-0.778585 -0.505878 -0.371339
			-0.498889 -0.293570 -0.815430
			-0.185810 -0.040231 -0.981762
			 0.375190  0.193705 -0.906483
			 0.868027  0.361709  0.340140
			 0.576822  0.210765  0.789211
			 0.241909  0.005231  0.970285
			-0.255394 -0.303942  0.917820
			 0.672157  0.516225 -0.530771
			-0.277642 -0.204014 -0.938772
			-0.759328 -0.536703 -0.367928
			 0.819656  0.572729  0.012073
			-0.764135 -0.558556 -0.322666
			 0.746051  0.585370  0.317410
			 0.722043  0.545326  0.425762
			-0.772970 -0.634439  0.002139
			 0.294877  0.201170  0.934119
			-0.628327 -0.490705  0.603668
			-0.738600 -0.531276  0.414989
			-0.821446 -0.494764 -0.283609
			-0.526244 -0.284857 -0.801202
			-0.209571 -0.070367 -0.975258
			-0.768405 -0.477280 -0.426330
			-0.083644 -0.007739 -0.996466
			 0.813369  0.294299 -0.501815
			 0.719623  0.300061  0.626184
			 0.504436  0.166759  0.847193
			 0.118321 -0.033697  0.992403
			-0.411955 -0.332885  0.848222
			 0.243808  0.081394 -0.966402
			-0.749036 -0.556969 -0.358789
			 0.797633  0.600685 -0.054396
			-0.755160 -0.648479 -0.095959
			 0.728839  0.616093  0.298704
			 0.684007  0.557401  0.470573
			 0.586020  0.428214  0.687905
			-0.489008 -0.451865  0.746116
			-0.788646 -0.555637  0.263258
			-0.766089 -0.374208 -0.522567
			-0.407515 -0.140232 -0.902367
			-0.140189 -0.002588 -0.990121
			-0.845273 -0.510609  0.157453
			-0.189959 -0.135496 -0.972397
			 0.806377  0.396355  0.438929
			 0.615799  0.227141 -0.754452
			 0.644467  0.288262  0.708214
			 0.438159  0.154617  0.885500
			 0.043647 -0.074485  0.996267
			-0.474546 -0.372196  0.797669
			 0.050690  0.014345 -0.998611
			-0.706389 -0.634763 -0.313194
			 0.763245  0.626980  0.156055
			 0.762643  0.612039 -0.209244
			-0.748209 -0.653408 -0.115068
			 0.649208  0.593590  0.475584
			 0.066778  0.126169  0.989759
			-0.869713 -0.493148  0.020132
			-0.741835 -0.357420 -0.567391
			-0.203408 -0.091104 -0.974846
			-0.464331 -0.219356 -0.858067
			-0.536523 -0.372577  0.757185
			-0.257662 -0.210275 -0.943077
			 0.642587  0.331878  0.690608
			 0.819887  0.442372  0.363445
			 0.788777  0.405488 -0.461963
			 0.371790  0.150409  0.916051
			-0.043889 -0.108774  0.993097
			 0.066743 -0.006200 -0.997751
			-0.671817 -0.673447 -0.308434
			 0.758478  0.651696  0.001893
			 0.716186  0.615701  0.328618
			-0.705621 -0.665058 -0.244533
			-0.752527 -0.654564 -0.072452
			 0.560878  0.552473  0.616595
			-0.566202 -0.462699  0.682147
			-0.771473 -0.370243 -0.517445
			-0.877913 -0.452229  0.157344
			-0.575321 -0.395917  0.715721
			-0.240989 -0.134488 -0.961164
			-0.325217 -0.219180 -0.919888
			-0.413349 -0.171622 -0.894253
			-0.097494 -0.117123  0.988320
			 0.623017  0.332510 -0.708016
			 0.578165  0.322352  0.749543
			 0.765236  0.508038  0.395363
			 0.289494  0.129804  0.948338
			-0.670022 -0.631786 -0.389766
			-0.033303  0.076922 -0.996481
			 0.736908  0.664102 -0.126234
			-0.707567 -0.639377 -0.300908
			 0.779023  0.609713  0.146199
			 0.687771  0.591386  0.420991
			-0.720942 -0.677049 -0.147807
			-0.052421  0.104703  0.993121
			-0.895777 -0.444452  0.006761
			-0.760429 -0.308310 -0.571570
			-0.478826 -0.238709  0.844834
			-0.384454 -0.150032 -0.910871
			-0.322973 -0.263066 -0.909112
			 0.383856 -0.022436 -0.923120
			 0.072467  0.037805  0.996654
			 0.881499  0.404084  0.244288
			 0.700946  0.416590  0.578902
			 0.390428  0.208537  0.896704
			-0.760110 -0.551694 -0.343316
			-0.042430  0.189737 -0.980918
			 0.744228  0.667770  0.014397
			-0.760325 -0.604501 -0.237666
			 0.738904  0.646713  0.189165
			 0.645850  0.584707  0.490913
			-0.763575 -0.639179 -0.091671
			-0.602036 -0.407772  0.686495
			-0.552667 -0.401406  0.730365
			-0.900735 -0.388251 -0.194777
			-0.624326 -0.210396 -0.752297
			-0.013353 -0.041209  0.999061
			-0.361104 -0.167605 -0.917340
			-0.394703 -0.325606 -0.859180
			-0.400256 -0.283499 -0.871449
			 0.901132  0.334733  0.275525
			 0.747169  0.305179 -0.590427
			 0.805540  0.250688  0.536899
			 0.461620  0.202402  0.863678
			-0.759877 -0.593421 -0.265401
			-0.762679 -0.521146 -0.383050
			 0.723962  0.682709 -0.098931
			-0.110620  0.166287 -0.979853
			 0.715970  0.680017  0.158001
			-0.746902 -0.658896 -0.089411
			 0.686318  0.586858  0.429612
			 0.107082  0.053985  0.992784
			-0.228436 -0.189718  0.954895
			-0.287647 -0.182210  0.940244
			-0.802691 -0.238765  0.546515
			-0.740977 -0.331861  0.583799
			-0.892557 -0.422483  0.157638
			-0.864098 -0.245408 -0.439442
			-0.520967 -0.115007 -0.845794
			-0.845288  0.171278 -0.506115
			 0.241123 -0.074014  0.967668
			 0.059229 -0.490435  0.869463
			 0.306036  0.166411  0.937363
			-0.413313 -0.322978 -0.851386
			-0.456377 -0.339670 -0.822401
			-0.364073 -0.395949 -0.843016
			 0.827893  0.434391  0.354819
			 0.815338  0.346206  0.464075
			 0.858716  0.508990  0.059462
			 0.904609  0.403930 -0.136101
			 0.330904  0.091722 -0.939196
			 0.576917  0.426047  0.696886
			 0.631713  0.283123  0.721651
			 0.487605  0.637604  0.596408
			 0.547084  0.209825  0.810354
			 0.449606  0.165351  0.877789
			-0.753020 -0.599711 -0.270754
			-0.703641 -0.689831 -0.170363
			-0.768219 -0.527832 -0.362261
			 0.764636  0.637343  0.095530
			 0.749152  0.606713 -0.265840
			-0.079609  0.069168 -0.994424
			 0.715853  0.599656  0.357725
			-0.712919 -0.700216 -0.037998
			 0.658828  0.537488  0.526358
			-0.176197 -0.144770  0.973651
			-0.591089 -0.190369  0.783820
			 0.089370 -0.030759  0.995524
			-0.534135 -0.274384  0.799633
			-0.621341 -0.220353  0.751918
			-0.917784 -0.375547  0.128983
			-0.898148 -0.372428 -0.233726
			-0.840948 -0.339431 -0.421419
			-0.648242 -0.286365 -0.705533
			-0.446422 -0.336304 -0.829221
			 0.252171 -0.259610  0.932209
			 0.373065  0.208513  0.904071
			 0.330707  0.082382  0.940131
			-0.270137 -0.369577 -0.889066
			 0.567732  0.100484 -0.817057
			 0.644738  0.579268  0.498760
			 0.835060  0.379009  0.398781
			 0.730819  0.512602  0.450713
			 0.884855  0.464299  0.038184
			 0.856828  0.447221  0.256591
			 0.900717  0.357012 -0.247491
			 0.911761  0.394856 -0.113048
			 0.771403  0.306663  0.557579
			 0.523168  0.127357  0.842660
			-0.695220 -0.690630 -0.199247
			-0.674946 -0.722930 -0.147719
			-0.776948 -0.564907 -0.277905
			-0.671074 -0.726492 -0.147880
			-0.032186 -0.028137 -0.999086
			 0.780059  0.598865 -0.181298
			 0.742996  0.640034  0.195742
			 0.667465  0.591900  0.451823
			-0.096953 -0.324292  0.940975
			-0.291738 -0.207321  0.933760
			 0.188644 -0.030876  0.981560
			-0.891583 -0.338167  0.301203
			-0.860898 -0.296569 -0.413403
			-0.835530 -0.320089 -0.446578
			-0.614583 -0.288825 -0.734076
			-0.433460 -0.294009 -0.851863
			 0.673792  0.229840 -0.702267
			 0.476693  0.149725 -0.866225
			 0.895378  0.443025 -0.045023
			 0.900029  0.435720  0.009784
			 0.842893  0.346075  0.412023
			 0.703795  0.231524  0.671617
			 0.491490  0.115638  0.863172
			-0.827565 -0.550721 -0.108821
			-0.789024 -0.602329 -0.120995
			-0.796843 -0.587162 -0.142416
			-0.211862 -0.025352 -0.976971
			-0.189235 -0.317005  0.929354
			 0.889584  0.447575  0.091196
			 0.867365  0.416330 -0.272667
			 0.798583  0.458950  0.389398
			-0.339792 -0.231669  0.911521
			 0.535223  0.084237  0.840500
			 0.192616 -0.060969  0.979378
			-0.910156 -0.323574 -0.258683
			-0.863381 -0.317004  0.392532
			-0.696290 -0.250179 -0.672749
			 0.144604  0.017161 -0.989341
			-0.490943 -0.254814 -0.833093
			 0.898841  0.426595 -0.100511
			 0.900663  0.316328  0.297898
			 0.782163  0.216431  0.584277
			-0.351396 -0.924952 -0.144863
			-0.528535 -0.841180 -0.114309
			-0.350443 -0.919461 -0.178274
			 0.185914 -0.878376  0.440332
			 0.219434 -0.771710 -0.596919
			 0.843086 -0.397951 -0.361718
			 0.885364 -0.454543 -0.097578
			 0.944459 -0.301933  0.129745
			-0.023937 -0.072125  0.997108
			-0.587506 -0.259318  0.766544
			 0.677186  0.172411  0.715328
			 0.379010  0.061116  0.923372
			-0.687880 -0.283828 -0.668029
			-0.914120 -0.310412  0.260822
			-0.902173 -0.369764 -0.222170
			 0.674609  0.329948 -0.660331
			-0.365188 -0.205539 -0.907960
			 0.912422  0.400074  0.086175
			 0.847470  0.294682  0.441539
			 0.170473  0.041834  0.984474
			-0.338066 -0.119917  0.933451
			-0.854312 -0.308062  0.418628
			 0.758536  0.285159  0.585924
			 0.518215  0.174460  0.837268
			-0.727041 -0.350089 -0.590634
			-0.239342 -0.149457 -0.959364
			-0.919590 -0.371601 -0.127543
			 0.749883  0.392823 -0.532321
			 0.912591  0.396675 -0.099133
			 0.895616  0.360567  0.260508
			 0.436718  0.141252  0.888440
			 0.064106  0.002168  0.997941
			-0.532561 -0.169742  0.829196
			-0.894210 -0.329764  0.302729
			 0.851913  0.369635  0.370963
			 0.691520  0.270114  0.669954
			-0.660274 -0.362766 -0.657601
			-0.871569 -0.399163 -0.284670
			-0.443795 -0.240131 -0.863356
			 0.575368  0.222962 -0.786918
			 0.904504  0.421902 -0.062223
			 0.608722  0.255831  0.751005
			 0.301477  0.118994  0.946019
			-0.142203 -0.033850  0.989259
			-0.681765 -0.195306  0.705020
			-0.924523 -0.327543  0.194867
			 0.877104  0.394241  0.274339
			 0.772073  0.343517  0.534696
			-0.860226 -0.330892 -0.387971
			-0.649528 -0.302152 -0.697723
			-0.481850 -0.312270 -0.818723
			 0.076460 -0.083675 -0.993556
			 0.920936  0.381412 -0.080012
			 0.829014  0.285162 -0.481060
			 0.777163  0.331701  0.534783
			 0.544702  0.227613  0.807150
			 0.179374  0.114175  0.977133
			-0.331506 -0.042889  0.942478
			-0.791452 -0.193944  0.579646
			-0.966506 -0.253069  0.042697
			 0.895207  0.386429  0.221986
			-0.822530 -0.279190 -0.495476
			-0.607781 -0.329083 -0.722708
			-0.296897 -0.228014 -0.927287
			 0.609025  0.196087 -0.768530
			 0.913318  0.379992 -0.146481
			 0.874162  0.342543  0.344245
			 0.719053  0.280915  0.635649
			 0.430957  0.213257  0.876811
			 0.005025  0.117007  0.993118
			-0.511646 -0.078950  0.855561
			-0.869787 -0.251464  0.424542
			-0.955414 -0.271081 -0.117046
			 0.937983  0.346615 -0.006829
			-0.768553 -0.263599 -0.582960
			-0.615257 -0.335355 -0.713440
			-0.283696 -0.164238 -0.944744
			 0.287366  0.138221 -0.947795
			 0.840720  0.342394 -0.419471
			 0.931369  0.336506  0.138978
			 0.828334  0.284912  0.482378
			 0.589885  0.273012  0.759934
			 0.243349  0.174098  0.954186
			-0.230082  0.028388  0.972757
			-0.760615 -0.087391  0.643294
			-0.977058 -0.119318  0.176411
			-0.949948 -0.043262 -0.309399
			 0.903945  0.350642 -0.244814
			-0.779603 -0.201570 -0.592948
			-0.551083 -0.327402 -0.767539
			 0.439500  0.192846 -0.877297
			-0.224132 -0.098492 -0.969569
			 0.934569  0.349201 -0.068121
			 0.898247  0.328316  0.292167
			 0.721746  0.300995  0.623286
			 0.426430  0.246249  0.870356
			 0.005889  0.116345  0.993192
			-0.643564  0.015510  0.765235
			-0.982801  0.043259  0.179529
			-0.964021 -0.001707 -0.265820
			 0.834829  0.308018 -0.456274
			-0.738324 -0.248527 -0.626987
			-0.183554 -0.085741 -0.979263
			 0.391558  0.192579 -0.899776
			 0.905559  0.309553 -0.290070
			 0.935459  0.330706  0.124697
			 0.823332  0.306254  0.477842
			 0.582709  0.240149  0.776388
			 0.178159  0.173246  0.968630
			-0.537584  0.156349  0.828588
			-0.965861  0.068023  0.249970
			-0.981540 -0.001859 -0.191249
			 0.466056  0.230318 -0.854252
			-0.665958 -0.301426 -0.682379
			-0.037012 -0.080440 -0.996072
			 0.638226  0.278819 -0.717585
			 0.896514  0.327211 -0.298657
			 0.951696  0.306401  0.019829
			 0.881410  0.302277  0.362967
			 0.670420  0.275926  0.688768
			 0.224068  0.193069  0.955258
			-0.448164  0.139188  0.883049
			-0.968749  0.129929  0.211291
			-0.981603 -0.106425 -0.158522
			 0.158768  0.107563 -0.981439
			-0.841425 -0.327430 -0.429876
			-0.473022 -0.162286 -0.865975
			 0.248152  0.183278 -0.951225
			 0.716350  0.329397 -0.615094
			 0.944396  0.323360 -0.059617
			 0.906640  0.313977  0.281821
			 0.702867  0.279461  0.654125
			 0.260911  0.238788  0.935364
			-0.707037  0.175694  0.685004
			-0.999283  0.029778  0.023395
			-0.926006 -0.104816 -0.362665
			-0.496376 -0.015826 -0.867964
			-0.416187 -0.054350 -0.907654
			 0.352404  0.253117 -0.900968
			 0.799152  0.288329 -0.527469
			 0.967489  0.252356  0.016759
			 0.878722  0.291795  0.377762
			 0.601995  0.301909  0.739225
			-0.079173  0.325740  0.942138
			-0.934545  0.187419  0.302490
			-0.983516 -0.072572 -0.165621
			-0.978031 -0.181111 -0.103221
			-0.594050 -0.098082 -0.798427
			 0.356772  0.172154 -0.918192
			 0.731852  0.303384 -0.610205
			 0.950693  0.301343 -0.073313
			 0.875885  0.298441  0.379154
			 0.595912  0.323553  0.734985
			-0.270920  0.371134  0.888179
			-0.918345  0.073083  0.388974
			-0.935717  0.054894  0.348455
			-0.982216 -0.007843 -0.187593
			-0.145636  0.116494 -0.982456
			 0.544344  0.284555 -0.789125
			 0.884458  0.370290 -0.283937
			 0.901231  0.281386  0.329553
			 0.595233  0.304692  0.743545
			-0.283061  0.255846  0.924348
			-0.869694  0.006765  0.493546
			-0.995070 -0.085320  0.050563
			-0.776080  0.188460 -0.601816
			 0.320008  0.290974 -0.901626
			 0.789574  0.447503 -0.419896
			 0.914660  0.341685  0.215982
			 0.673228  0.276219  0.685906
			-0.028314  0.285978  0.957818
			-0.128359  0.330539  0.935023
			-0.874668 -0.028705  0.483873
			-0.948241 -0.317501 -0.005668
			-0.725018  0.014888 -0.688569
			 0.238388  0.278355 -0.930424
			 0.765526  0.381488 -0.518109
			 0.910329  0.407884  0.070228
			 0.695128  0.383283  0.608187
			-0.637885  0.135496  0.758118
			 0.219324  0.438072  0.871774
			-0.948385 -0.284118  0.140862
			-0.825505 -0.133549 -0.548367
			-0.022843  0.205096 -0.978475
			 0.731811  0.303093 -0.610400
			 0.890609  0.413934 -0.188347
			 0.783910  0.435364  0.442655
			-0.200033  0.241748  0.949497
			-0.787934 -0.161681  0.594155
			 0.484029  0.407076  0.774600
			-0.920178 -0.390488 -0.028137
			-0.774217 -0.124314 -0.620591
			 0.140899  0.219916 -0.965290
			 0.792998  0.387703 -0.469937
			 0.840570  0.508336  0.187177
			-0.123290  0.153212  0.980472
			-0.759820 -0.343500  0.551980
			 0.621604  0.404674  0.670707
			-0.884325 -0.439954 -0.156238
			-0.675026 -0.109476 -0.729626
			 0.292754  0.269799 -0.917335
			 0.896421  0.442830  0.018183
			 0.782300  0.368085 -0.502513
			 0.158136  0.119096  0.980209
			-0.870105 -0.468996  0.151527
			-0.546455 -0.262093  0.795421
			 0.795541  0.421988  0.434787
			-0.782237 -0.378100 -0.495122
			 0.028874  0.279295 -0.959771
			 0.834987  0.469370 -0.287209
			 0.007312  0.013749  0.999879
			 0.789547  0.315662  0.526281
			-0.817219 -0.569345  0.089437
			-0.648285 -0.247616  0.720009
			 0.136288  0.193673 -0.971554
			-0.505394 -0.557400 -0.658697
			 0.867759  0.371101 -0.330574
			 0.067847  0.054971  0.996180
			 0.890598  0.194138  0.411274
			-0.692809 -0.251561  0.675820
			-0.839836 -0.539911  0.056314
			-0.067039  0.130013 -0.989243
			 0.500456  0.393736 -0.771048
			-0.512451 -0.429002 -0.743876
			 0.894326  0.297305 -0.334350
			 0.339389  0.123621  0.932487
			-0.539561  0.020510  0.841697
			 0.965112  0.195660  0.174002
			-0.877418 -0.171381  0.448070
			-0.729596 -0.142368 -0.668895
			 0.213535  0.294202 -0.931584
			 0.700163  0.293471 -0.650881
			 0.644444  0.233647  0.728081
			-0.281777  0.151085  0.947510
			-0.775487  0.098377  0.623652
			 0.945191  0.233448 -0.228287
			-0.992875 -0.087305 -0.081101
			-0.112169  0.106889 -0.987924
			 0.472112  0.331159 -0.816973
			 0.929039  0.359752 -0.086397
			 0.056671  0.134223  0.989329
			-0.707528  0.090981  0.700804
			-0.984239  0.132946 -0.116614
			 0.322881  0.286613 -0.901998
			 0.349731  0.250375 -0.902774
			 0.975225  0.174228 -0.136311
			-0.093930 -0.065200  0.993441
			-0.692685 -0.190418  0.695650
			-0.428674  0.060599 -0.901425
			-0.902380 -0.038356 -0.429231
			 0.354463  0.143007 -0.924070
			 0.098792 -0.078673  0.991993
			 0.995865  0.061109 -0.067216
			-0.633246 -0.179039  0.752957
			-0.957058  0.040858 -0.287003
			 0.093448  0.242233 -0.965707
			 0.809449  0.289570 -0.510824
			 0.301588 -0.053607  0.951930
			-0.556112 -0.200190  0.806637
			-0.910515  0.413475 -0.000533
			-0.122948  0.714947 -0.688283
			 0.192653  0.968121 -0.160083
			 0.434487  0.609876  0.662776
			-0.608534  0.394905  0.688285
		</DataArray>
	</PointData>
	<Points>
		<DataArray type="Float32" NumberOfComponents="3" format="ascii">
			 0.098666 -0.315848 -0.108675
			 0.099590 -0.315574 -0.107041
			 0.100294 -0.316747 -0.107083
			 0.096563 -0.316810 -0.107616
			 0.098898 -0.317161 -0.108638
			 0.097672 -0.316467 -0.108243
			 0.093932 -0.306738 -0.108763
			 0.099598 -0.315769 -0.105818
			 0.095939 -0.306278 -0.106166
			 0.102092 -0.322193 -0.109741
			 0.103253 -0.321973 -0.107605
			 0.100133 -0.317115 -0.105069
			 0.090555 -0.308390 -0.107719
			 0.096687 -0.318318 -0.107656
			 0.095793 -0.317210 -0.107237
			 0.094030 -0.318340 -0.105044
			 0.100940 -0.322750 -0.109555
			 0.090359 -0.297414 -0.107849
			 0.091587 -0.297343 -0.104961
			 0.094310 -0.308198 -0.098741
			 0.097509 -0.317532 -0.100606
			 0.090446 -0.298949 -0.098153
			 0.105379 -0.327257 -0.110349
			 0.103612 -0.328220 -0.109298
			 0.101995 -0.323068 -0.104050
			 0.106576 -0.326938 -0.108765
			 0.105890 -0.327567 -0.106613
			 0.097537 -0.319109 -0.099558
			 0.093268 -0.318019 -0.104595
			 0.088235 -0.309911 -0.104623
			 0.084021 -0.300554 -0.105646
			 0.098053 -0.324613 -0.105863
			 0.094375 -0.319798 -0.104782
			 0.083247 -0.289619 -0.107083
			 0.085680 -0.288649 -0.106481
			 0.087490 -0.288683 -0.101370
			 0.093971 -0.313189 -0.097053
			 0.097085 -0.317864 -0.099708
			 0.091424 -0.309963 -0.095673
			 0.085636 -0.301842 -0.093338
			 0.083192 -0.291732 -0.094215
			 0.108303 -0.332446 -0.111222
			 0.107378 -0.332922 -0.110871
			 0.101624 -0.329541 -0.106491
			 0.105503 -0.334275 -0.107489
			 0.098699 -0.325193 -0.099852
			 0.101713 -0.330344 -0.100702
			 0.109728 -0.332003 -0.109780
			 0.109133 -0.332604 -0.107534
			 0.107875 -0.333464 -0.105592
			 0.095207 -0.320323 -0.098544
			 0.091014 -0.314783 -0.104078
			 0.091084 -0.315156 -0.101299
			 0.088111 -0.311131 -0.097440
			 0.081656 -0.302737 -0.098592
			 0.080341 -0.291190 -0.105266
			 0.075785 -0.294006 -0.100242
			 0.096820 -0.325879 -0.101058
			 0.099758 -0.331070 -0.101876
			 0.093659 -0.320718 -0.100722
			 0.080279 -0.280197 -0.105139
			 0.075968 -0.282202 -0.104449
			 0.083456 -0.279413 -0.101370
			 0.079355 -0.282175 -0.095445
			 0.093554 -0.314546 -0.097715
			 0.094846 -0.316370 -0.098503
			 0.092104 -0.315130 -0.098277
			 0.083713 -0.302569 -0.094065
			 0.078888 -0.294112 -0.091191
			 0.073486 -0.285683 -0.089706
			 0.111352 -0.337524 -0.112470
			 0.110469 -0.337985 -0.112095
			 0.108808 -0.339347 -0.107978
			 0.103232 -0.335969 -0.103020
			 0.106683 -0.341015 -0.103220
			 0.097092 -0.325930 -0.099841
			 0.100550 -0.330923 -0.100397
			 0.103902 -0.335941 -0.101104
			 0.105016 -0.335419 -0.101182
			 0.112798 -0.337147 -0.110508
			 0.111284 -0.338469 -0.106212
			 0.112277 -0.337758 -0.107958
			 0.108412 -0.340522 -0.101165
			 0.094004 -0.320570 -0.099053
			 0.091149 -0.315284 -0.100219
			 0.091237 -0.315458 -0.098752
			 0.075875 -0.295144 -0.092988
			 0.071371 -0.284723 -0.101351
			 0.069090 -0.286679 -0.095466
			 0.072036 -0.272929 -0.104184
			 0.078149 -0.270422 -0.103094
			 0.066983 -0.275546 -0.101731
			 0.080196 -0.269904 -0.100749
			 0.070568 -0.275890 -0.089911
			 0.070358 -0.286863 -0.090899
			 0.067121 -0.277632 -0.088503
			 0.114508 -0.342581 -0.113536
			 0.113655 -0.343075 -0.112831
			 0.115362 -0.342375 -0.112261
			 0.111831 -0.344708 -0.107369
			 0.107349 -0.341019 -0.101100
			 0.109988 -0.346087 -0.103708
			 0.115687 -0.342597 -0.109712
			 0.114060 -0.343874 -0.106077
			 0.111748 -0.345687 -0.100914
			 0.110830 -0.346037 -0.101412
			 0.063090 -0.278023 -0.097001
			 0.062928 -0.278911 -0.091968
			 0.061120 -0.267086 -0.101694
			 0.068528 -0.263306 -0.104940
			 0.076592 -0.260247 -0.101972
			 0.076736 -0.260445 -0.100357
			 0.065477 -0.267158 -0.089458
			 0.061480 -0.269069 -0.088495
			 0.118179 -0.347451 -0.114251
			 0.117347 -0.347761 -0.114749
			 0.115580 -0.349318 -0.109624
			 0.119051 -0.347418 -0.111738
			 0.113518 -0.350928 -0.105070
			 0.117639 -0.348867 -0.106239
			 0.115409 -0.350651 -0.101027
			 0.114437 -0.350961 -0.101955
			 0.056443 -0.270845 -0.091181
			 0.056979 -0.269773 -0.096338
			 0.055105 -0.258915 -0.100276
			 0.062420 -0.255139 -0.103753
			 0.073624 -0.250475 -0.102175
			 0.069342 -0.253419 -0.095620
			 0.060352 -0.258600 -0.088022
			 0.055237 -0.260857 -0.087954
			 0.121233 -0.352551 -0.115333
			 0.120352 -0.352883 -0.115828
			 0.122258 -0.352459 -0.112744
			 0.118683 -0.354472 -0.110187
			 0.121317 -0.353681 -0.107320
			 0.117100 -0.356097 -0.104020
			 0.119325 -0.355261 -0.102759
			 0.117763 -0.356169 -0.101440
			 0.118594 -0.355840 -0.101086
			 0.050509 -0.262509 -0.090564
			 0.050630 -0.261780 -0.094729
			 0.048552 -0.250913 -0.099278
			 0.058195 -0.245940 -0.103836
			 0.069325 -0.241149 -0.103241
			 0.069656 -0.241224 -0.101883
			 0.064320 -0.244917 -0.093560
			 0.054526 -0.250338 -0.086656
			 0.049783 -0.252390 -0.086848
			 0.124558 -0.357619 -0.115784
			 0.123600 -0.358014 -0.116092
			 0.123129 -0.358580 -0.113692
			 0.125708 -0.357508 -0.112934
			 0.122150 -0.359758 -0.108687
			 0.124746 -0.358678 -0.107934
			 0.124325 -0.359189 -0.105751
			 0.120381 -0.361319 -0.103554
			 0.122238 -0.360951 -0.100241
			 0.121309 -0.361289 -0.100846
			 0.045083 -0.253903 -0.090238
			 0.044616 -0.253337 -0.094995
			 0.042859 -0.242422 -0.098971
			 0.052296 -0.237649 -0.102847
			 0.065421 -0.231868 -0.102956
			 0.065551 -0.232125 -0.101017
			 0.057442 -0.237356 -0.090723
			 0.049523 -0.241659 -0.085636
			 0.043358 -0.244354 -0.085709
			 0.128789 -0.362319 -0.115915
			 0.127991 -0.362609 -0.116432
			 0.126223 -0.364167 -0.111307
			 0.129628 -0.362330 -0.113200
			 0.125664 -0.364783 -0.108846
			 0.128721 -0.363529 -0.107834
			 0.126779 -0.365241 -0.102198
			 0.124399 -0.366172 -0.103301
			 0.126048 -0.365887 -0.100074
			 0.125173 -0.366234 -0.100444
			 0.040147 -0.245347 -0.088279
			 0.039048 -0.244842 -0.094364
			 0.038257 -0.233293 -0.099638
			 0.042635 -0.231056 -0.101576
			 0.034036 -0.236173 -0.093306
			 0.053192 -0.226400 -0.101701
			 0.062087 -0.222218 -0.103399
			 0.059107 -0.224632 -0.096588
			 0.049654 -0.230309 -0.087183
			 0.042650 -0.233884 -0.084102
			 0.036315 -0.236407 -0.085697
			 0.131586 -0.367634 -0.116332
			 0.129730 -0.369156 -0.111722
			 0.132910 -0.367682 -0.111839
			 0.128432 -0.370878 -0.104007
			 0.132817 -0.368236 -0.108333
			 0.130727 -0.369994 -0.102849
			 0.129904 -0.370686 -0.100690
			 0.129157 -0.371072 -0.100398
			 0.033921 -0.236925 -0.088985
			 0.028431 -0.227520 -0.093756
			 0.034634 -0.223869 -0.099472
			 0.042922 -0.219915 -0.101410
			 0.027617 -0.228619 -0.089186
			 0.051155 -0.216140 -0.102393
			 0.057186 -0.213689 -0.101180
			 0.057578 -0.212894 -0.105017
			 0.052346 -0.217182 -0.092751
			 0.043871 -0.222085 -0.085472
			 0.037912 -0.225019 -0.083516
			 0.030129 -0.228147 -0.085299
			 0.135191 -0.372653 -0.116230
			 0.133861 -0.373894 -0.111911
			 0.136915 -0.372843 -0.109518
			 0.136434 -0.372479 -0.113520
			 0.132905 -0.375426 -0.104408
			 0.135286 -0.374521 -0.103133
			 0.133303 -0.375874 -0.100088