<?xml version="1.0"?>
<VTKFile type="PolyData" version="0.1" byte_order="LittleEndian" compressor="vtkZLibDataCompressor">
	<PolyData>
		<Piece NumberOfPoints="484" NumberOfVerts="0" NumberOfLines="0" NumberOfStrips="0" NumberOfPolys="964">
		<PointData Normals="Normals">
		<DataArray type="Float32" Name="Normals" NumberOfComponents="3" format="ascii">
			 0.281427  0.450651 -0.847179
			 0.643356 -0.355050 -0.678257
			 0.011113 -0.908385 -0.417987
			-0.628526 -0.565944 -0.533538
			 0.672672  0.151251 -0.724317
			-0.149689  0.504694 -0.850222
			 0.382168  0.403583 -0.831306
			 0.209750  0.508262 -0.835269
			-0.027118 -0.965442  0.259204
			 0.692500 -0.649548 -0.313895
			-0.377581 -0.724895  0.576160
			-0.855955 -0.471647 -0.211874
			-0.236277 -0.771050  0.591317
			 0.895588 -0.394424 -0.205794
			 0.821595  0.115525 -0.558244
			 0.047614  0.380956 -0.923366
			-0.924913 -0.304228 -0.227996
			 0.612095  0.238193 -0.754058
			 0.225769 -0.925368  0.304505
			-0.441118 -0.676043  0.590238
			-0.326288 -0.732680  0.597257
			-0.356009 -0.673148  0.648174
			 0.551533 -0.730791  0.402188
			 0.970501 -0.231818  0.066247
			 0.976538 -0.007060 -0.215228
			-0.578494  0.112962 -0.807827
			 0.123939  0.246188 -0.961265
			-0.870539 -0.263985  0.415300
			 0.742460  0.104874 -0.661630
			-0.091553 -0.790015  0.606213
			-0.155139 -0.721889  0.674394
			 0.050932 -0.618195  0.784373
			-0.567225 -0.463277  0.680904
			 0.549627 -0.586499  0.594919
			 0.876208 -0.274415  0.396176
			 0.998564 -0.007036 -0.053101
			-0.321311  0.317617 -0.892120
			-0.983758  0.157940 -0.085288
			 0.322530  0.207204 -0.923602
			 0.798739  0.165015 -0.578606
			 0.713062 -0.458492  0.530404
			-0.084460 -0.631662  0.770630
			-0.447280 -0.493115  0.746175
			-0.808046 -0.241917  0.537157
			 0.986385 -0.085506 -0.140479
			-0.991961  0.110680 -0.061346
			-0.387125  0.446464 -0.806724
			 0.174386  0.357340 -0.917550
			 0.670462  0.169487 -0.722326
			 0.819484 -0.481739  0.310440
			 0.107625 -0.614826  0.781285
			-0.349011 -0.499089  0.793159
			-0.730680 -0.313872  0.606293
			 0.952441 -0.143472 -0.268834
			-0.954153  0.299019 -0.013400
			-0.229560  0.659682 -0.715627
			 0.160889  0.540763 -0.825645
			 0.696136  0.258638 -0.669702
			 0.899457 -0.389845  0.197481
			 0.290447 -0.599672  0.745677
			-0.141217 -0.503853  0.852168
			-0.472931 -0.476674  0.741025
			-0.782031 -0.225726  0.580926
			 0.930659 -0.222332 -0.290589
			-0.929850  0.035967  0.366177
			-0.693000  0.626766 -0.356252
			-0.277586  0.715484 -0.641116
			 0.111086  0.660455 -0.742603
			 0.732693  0.155537 -0.662548
			 0.931056 -0.353204  0.091553
			 0.523767 -0.504063  0.686723
			-0.210432 -0.499758  0.840214
			-0.658021 -0.286042  0.696554
			 0.922894 -0.314281 -0.222471
			-0.857397  0.485138 -0.171786
			-0.890178 -0.006852  0.455561
			-0.352594  0.643428 -0.679469
			 0.134593  0.537635 -0.832366
			 0.668035 -0.044067 -0.742824
			 0.814456 -0.538358  0.216406
			 0.370822 -0.597534  0.710946
			-0.051696 -0.534289  0.843720
			-0.522015 -0.423504  0.740367
			 0.822244 -0.520320 -0.230614
			-0.689952  0.551873 -0.468403
			-0.915164 -0.091173  0.392635
			 0.121048  0.245942 -0.961696
			 0.575394 -0.373238 -0.727747
			 0.769793 -0.611355  0.183478
			 0.497898 -0.613511  0.612945
			 0.113441 -0.457560  0.881913
			-0.334930 -0.444027  0.831060
			-0.673707 -0.319824  0.666207
			 0.863277 -0.436499 -0.253418
			 0.830295 -0.542070  0.129499
			-0.467700  0.590714 -0.657506
			-0.921568  0.345056  0.177902
			-0.069284 -0.062195 -0.995656
			 0.516590 -0.402521 -0.755719
			 0.901893 -0.273276 -0.334529
			 0.571827 -0.539127  0.618350
			 0.172647 -0.449889  0.876238
			-0.320975 -0.319410  0.891601
			-0.730513 -0.074527  0.678820
			 0.935449 -0.337545  0.104872
			 0.637640 -0.473824  0.607377
			-0.857723  0.469577  0.209306
			-0.574081  0.593050 -0.564555
			-0.410898  0.049431 -0.910340
			-0.023385 -0.335529 -0.941739
			 0.815243 -0.153610 -0.558375
			 0.980602 -0.163591 -0.107968
			 0.364503 -0.389399  0.845876
			-0.146393 -0.338668  0.929448
			-0.684986  0.002929  0.728550
			 0.839742 -0.288641  0.459912
			-0.840052  0.536524 -0.080335
			-0.859964  0.214694  0.462999
			-0.518294  0.469720 -0.714657
			-0.566862 -0.463692 -0.680923
			-0.490378 -0.011521 -0.871433
			-0.104364 -0.425221 -0.899052
			 0.611780 -0.087464 -0.786177
			 0.940898 -0.065315 -0.332331
			 0.981613 -0.186761 -0.039447
			 0.370603 -0.326909  0.869359
			-0.012907 -0.328899  0.944277
			-0.536805 -0.127345  0.834041
			 0.776646 -0.332759  0.534876
			-0.932941  0.316225  0.172110
			-0.781793  0.370252 -0.501711
			-0.748514 -0.027567  0.662546
			-0.737459 -0.202999 -0.644162
			-0.668104 -0.338226 -0.662752
			 0.152294 -0.097324 -0.983532
			 0.742667 -0.019117 -0.669388
			 0.952625 -0.100215 -0.287162
			 0.930983  0.053163 -0.361171
			 0.962857 -0.258787  0.077043
			 0.329755 -0.322144  0.887403
			-0.225054 -0.228114  0.947267
			 0.722470 -0.300386  0.622740
			-0.887028  0.442635 -0.131361
			-0.905731  0.165710  0.390118
			-0.927434  0.221069 -0.301654
			-0.579403 -0.095270  0.809454
			-0.679596 -0.022002 -0.733257
			-0.069432 -0.009657 -0.997540
			 0.696337  0.035071 -0.716858
			 0.894185 -0.089442 -0.438671
			 0.970597 -0.153226 -0.185642
			 0.898096 -0.193062  0.395159
			-0.028844 -0.193788  0.980619
			 0.499601 -0.251092  0.829067
			-0.938647  0.344860 -0.003759
			-0.828940  0.207105  0.519583
			-0.806470  0.128867 -0.577061
			-0.442209 -0.075396  0.893738
			 0.112478  0.097792 -0.988830
			 0.848966 -0.050447 -0.526034
			 0.687775  0.189929 -0.700638
			 0.942872 -0.181232 -0.279548
			 0.959713 -0.059386  0.274635
			 0.650826 -0.212039  0.729016
			 0.113172 -0.250776  0.961407
			-0.971607  0.228707  0.060596
			-0.818591  0.077760  0.569088
			-0.763790  0.049829 -0.643539
			-0.325426 -0.179990  0.928279
			-0.045032  0.134597 -0.989877
			 0.615274  0.139797 -0.775819
			 0.924020 -0.155295 -0.349385
			 0.966093 -0.057585  0.251690
			 0.694322 -0.049892  0.717932
			 0.205994 -0.198053  0.958301
			-0.995861 -0.051215  0.075079
			-0.732509 -0.155897  0.662666
			-0.777495  0.002670 -0.628883
			-0.187998 -0.158800  0.969247
			 0.096445  0.281872 -0.954592
			 0.687281  0.010683 -0.726313
			 0.954714 -0.097055 -0.281251
			 0.971038 -0.016991  0.238319
			 0.757987  0.011316  0.652172
			 0.333614 -0.055657  0.941065
			-0.928999 -0.121163  0.349687
			-0.995280 -0.069767 -0.067453
			-0.540852 -0.139139  0.829530
			-0.601919  0.233227 -0.763740
			 0.136585 -0.128974  0.982197
			 0.233993  0.255717 -0.938006
			 0.773260 -0.062155 -0.631035
			 0.996493  0.018609 -0.081577
			 0.958442  0.006609  0.285210
			 0.715298 -0.017250  0.698607
			-0.830520 -0.168239  0.530973
			-0.982566 -0.161384  0.092300
			-0.728623  0.160093 -0.665942
			-0.375843 -0.248246  0.892814
			 0.110754 -0.182022  0.977037
			 0.560014  0.000789  0.828483
			 0.189566  0.280214 -0.941034
			 0.735237 -0.009356 -0.677745
			 0.999008  0.014409 -0.042139
			 0.882249  0.070797  0.465430
			-0.908152 -0.218996  0.356793
			-0.498371 -0.263956  0.825805
			-0.981249 -0.159236 -0.108604
			-0.522771  0.328024 -0.786836
			 0.225410 -0.083589  0.970672
			 0.642309  0.148404  0.751941
			 0.149097  0.124472 -0.980957
			 0.629983 -0.093180 -0.770999
			 0.988464  0.032739 -0.147874
			 0.927894  0.054119  0.368895
			-0.845935 -0.229495  0.481380
			-0.984204 -0.171243  0.044925
			-0.453003 -0.253517  0.854703
			-0.893345  0.026639 -0.448581
			-0.307834  0.213037 -0.927283
			 0.151129 -0.152005  0.976757
			 0.605404  0.103987  0.789096
			 0.137148 -0.051013 -0.989236
			 0.826885  0.044591 -0.560601
			 0.999197  0.026347  0.030183
			 0.892544  0.075842  0.444537
			-0.838948 -0.355043  0.412445
			-0.895307 -0.398085 -0.199882
			-0.361637 -0.281883  0.888685
			-0.706485 -0.015594 -0.707557
			-0.306140  0.149802 -0.940127
			 0.291935 -0.054918  0.954860
			 0.782430  0.114728  0.612080
			 0.333452 -0.020798 -0.942538
			 0.947187 -0.005726 -0.320631
			 0.989044 -0.052695  0.137895
			-0.384213 -0.366969  0.847180
			-0.760591 -0.642201  0.095282
			-0.710874 -0.416858 -0.566469
			-0.506805  0.100045 -0.856236
			-0.465246  0.069572 -0.882443
			 0.405239  0.042386  0.913227
			 0.983694  0.019884  0.178748
			-0.068571 -0.147256 -0.986719
			 0.804835  0.007502 -0.593451
			-0.595734 -0.638926  0.486697
			-0.340354 -0.271257  0.900321
			 0.303858  0.103588  0.947069
			-0.744351 -0.620210 -0.247551
			-0.389267 -0.127087 -0.912316
			-0.635474 -0.391659 -0.665414
			-0.423342  0.071259 -0.903163
			-0.742248 -0.055251 -0.667844
			 0.794435 -0.127709 -0.593770
			 0.949235  0.069788  0.306729
			-0.540597 -0.171873 -0.823538
			 0.599505 -0.063105 -0.797880
			-0.260029 -0.278620  0.924530
			-0.550026 -0.758963  0.348492
			 0.230840  0.149514  0.961436
			 0.514809  0.321785  0.794623
			-0.610705 -0.272333 -0.743555
			-0.707224 -0.542616 -0.453213
			-0.262021 -0.112172 -0.958521
			-0.401806 -0.133066 -0.906005
			-0.748819 -0.215140 -0.626885
			 0.726480 -0.153629 -0.669795
			 0.966447 -0.055215 -0.250860
			 0.775899  0.216487  0.592548
			-0.444525 -0.145373 -0.883892
			 0.402731 -0.076583 -0.912109
			-0.098594 -0.201291  0.974557
			 0.232127  0.155713  0.960141
			-0.393854 -0.630082  0.669235
			-0.663654 -0.700380 -0.262738
			 0.519649  0.385916  0.762255
			 0.640342  0.325539  0.695691
			-0.629922 -0.346631 -0.695014
			-0.430006 -0.162217 -0.888133
			-0.294684 -0.229981 -0.927508
			-0.638770 -0.044118 -0.768131
			 0.443171  0.003411 -0.896431
			 0.889802 -0.062046 -0.452109
			-0.307451  0.134237 -0.942048
			 0.390074  0.331431  0.859067
			-0.074670 -0.080884  0.993923
			-0.576599 -0.694266  0.430731
			-0.595899 -0.565036 -0.570647
			 0.400387  0.525244  0.750872
			 0.785151  0.409439  0.464648
			 0.340681  0.438020  0.831911
			-0.453409 -0.394548 -0.799220
			-0.278018 -0.263462 -0.923739
			-0.250804 -0.201646 -0.946803
			-0.090097 -0.009315 -0.995889
			 0.740718  0.168433 -0.650359
			 0.578422  0.503510  0.641799
			 0.440236  0.421763  0.792659
			 0.035455  0.151799  0.987775
			-0.398793 -0.512124  0.760719
			-0.648736 -0.665956 -0.368300
			-0.502131 -0.500985 -0.704896
			 0.346745  0.465376  0.814366
			 0.517280  0.641583  0.566386
			 0.277758  0.443781  0.852003
			-0.303247 -0.413565 -0.858490
			-0.139506 -0.354214 -0.924700
			-0.110456 -0.219712 -0.969291
			-0.102885 -0.096301 -0.990021
			-0.064802 -0.103505 -0.992516
			 0.557006  0.542967 -0.628436
			 0.486244  0.473418  0.734468
			 0.467946  0.495560  0.731742
			 0.148226  0.281953  0.947909
			-0.159298 -0.230419  0.959964
			-0.655085 -0.722638  0.220588
			-0.568509 -0.574901 -0.588461
			-0.382395 -0.479314 -0.789957
			 0.355419  0.637246  0.683809
			 0.372371  0.461736 -0.805072
			-0.188579 -0.406846 -0.893820
			-0.055444 -0.327703 -0.943152
			-0.033606 -0.236581 -0.971030
			 0.450600  0.536773  0.713326
			 0.404621  0.574121  0.711806
			 0.225320  0.218078  0.949565
			-0.162105 -0.351204  0.922159
			-0.757754 -0.651488 -0.037047
			-0.630195 -0.532439 -0.565122
			-0.429292 -0.521741 -0.737220
			-0.244387 -0.452927 -0.857398
			 0.687178  0.172630 -0.705681
			-0.054310 -0.426095 -0.903047
			 0.444989  0.412708  0.794769
			 0.500829  0.573268  0.648487
			 0.363426  0.565512  0.740349
			 0.278547  0.082140  0.956904
			-0.559035 -0.566391  0.605542
			 0.069537 -0.202104  0.976892
			-0.773918 -0.537311 -0.335183
			-0.595380 -0.511482 -0.619604
			-0.384439 -0.458811 -0.801062
			-0.167585 -0.449571 -0.877383
			 0.019526 -0.437928 -0.898798
			 0.902151  0.207625 -0.378174
			 0.506281  0.447514  0.737164
			 0.371709  0.652537  0.660324
			 0.427178  0.609553  0.667805
			 0.316182  0.606686  0.729356
			 0.331084  0.107643  0.937441
			-0.001219 -0.283435  0.958991
			-0.600327 -0.694459  0.396655
			-0.732752 -0.560792 -0.385469
			-0.573316 -0.510974 -0.640479
			-0.341808 -0.518962 -0.783483
			-0.156571 -0.509705 -0.845983
			-0.029440 -0.484909 -0.874069
			 0.177145 -0.421481 -0.889367
			 0.838649  0.179745 -0.514159
			 0.591405  0.385395  0.708315
			 0.548407  0.665049  0.506912
			 0.257833  0.650310  0.714577
			 0.353820  0.684854  0.637014
			 0.718940  0.660459  0.216610
			 0.447558  0.087124  0.890000
			 0.218647 -0.349501  0.911067
			-0.276326 -0.619654  0.734624
			-0.784489 -0.620059 -0.010172
			-0.743819 -0.518131 -0.422223
			-0.577624 -0.505454 -0.640988
			-0.338372 -0.520677 -0.783837
			-0.107855 -0.489336 -0.865400
			 0.324447 -0.261530 -0.909030
			 0.611420  0.527634  0.589719
			 0.526023  0.679186  0.511864
			 0.253420  0.665378  0.702175
			 0.329655  0.656361  0.678615
			 0.665627  0.584665 -0.463798
			 0.510420  0.147463  0.847187
			 0.397896 -0.141342  0.906478
			 0.086698 -0.401851  0.911592
			-0.630902 -0.657760  0.411480
			-0.825812 -0.508682 -0.243471
			-0.746059 -0.464110 -0.477492
			-0.631302 -0.424866 -0.648803
			-0.262192 -0.457367 -0.849748
			-0.480552 -0.442337 -0.757237
			-0.092816 -0.449289 -0.888552
			 0.677683  0.497704  0.541328
			 0.702649  0.586424  0.402977
			 0.526068  0.592655  0.609928
			 0.603243  0.573856 -0.553883
			 0.370588  0.609217  0.701084
			 0.570840  0.233645  0.787116
			 0.401667 -0.056657  0.914031
			-0.031216 -0.398396  0.916682
			-0.742298 -0.596040  0.306155
			-0.871527 -0.440884 -0.214622
			-0.798516 -0.367919 -0.476454
			-0.663718 -0.345002 -0.663665
			-0.232448 -0.457890 -0.858082
			-0.500449 -0.372346 -0.781607
			 0.655188  0.547462  0.520591
			 0.686672  0.610564  0.394581
			 0.633101  0.577761  0.515146
			 0.453627  0.609038  0.650612
			 0.607565  0.526071 -0.595075
			 0.547914  0.322022  0.772070
			 0.289608 -0.012248  0.957067
			-0.630653 -0.447767  0.633863
			-0.862706 -0.465564 -0.197456
			-0.832816 -0.348234 -0.430292
			-0.698282 -0.348916 -0.625028
			-0.513400 -0.407400 -0.755279
			-0.328112 -0.430332 -0.840926
			 0.679612  0.521104  0.516312
			 0.693658  0.594407  0.406840
			 0.625191  0.532441  0.570651
			 0.602012  0.792042 -0.101247
			 0.535394  0.573883  0.619687
			 0.576350  0.314860  0.754111
			-0.372972 -0.276720  0.885617
			 0.334108  0.092411  0.937993
			-0.874001 -0.482233 -0.059785
			-0.809673 -0.428995 -0.400491
			-0.762886 -0.337851 -0.551237
			-0.669605 -0.324126 -0.668260
			-0.587301 -0.345493 -0.731924
			-0.473581 -0.356069 -0.805566
			 0.674783  0.441339  0.591513
			 0.746897  0.536140  0.393319
			 0.750175  0.466745  0.468386
			 0.603979  0.560349  0.566762
			 0.698917  0.465144  0.543283
			-0.041959  0.094038 -0.994684
			 0.439243  0.193934  0.877186
			-0.296787 -0.252840  0.920863
			-0.878871 -0.470992  0.075846
			-0.857700 -0.372137 -0.354774
			-0.804546 -0.299820 -0.512653
			-0.743618 -0.284940 -0.604849
			-0.690124 -0.303113 -0.657154
			-0.526333 -0.385662 -0.757785
			 0.713481  0.396964  0.577378
			 0.768056  0.492361  0.409477
			 0.738521  0.488799  0.464395
			 0.641869  0.604681  0.471556
			 0.123268  0.717325 -0.685748
			 0.454481  0.165176  0.875308
			-0.225910 -0.231239  0.946305
			-0.891714 -0.403946  0.204143
			-0.900330 -0.287916 -0.326358
			-0.790196 -0.277792 -0.546280
			-0.716239 -0.326018 -0.617020
			-0.653988 -0.356245 -0.667375
			 0.564864  0.245934  0.787683
			 0.776593  0.484830  0.402297
			 0.713986  0.398772  0.575504
			 0.694748  0.589746  0.411734
			 0.001159  0.729302 -0.684191
			-0.373357 -0.254912  0.891978
			-0.926295 -0.315654 -0.205770
			-0.875839 -0.219664 -0.429713
			-0.724913 -0.348068 -0.594432
			 0.587783  0.253218  0.768370
			 0.716898  0.590847  0.370078
			 0.746228  0.440612  0.499005
			 0.777099  0.502058  0.379547
			-0.252678  0.814253 -0.522634
			-0.478701 -0.393355  0.784932
			-0.887996 -0.416692 -0.194501
			-0.868287 -0.307626 -0.389157
			-0.792943 -0.324028 -0.515992
			-0.843444 -0.294950 -0.449006
			 0.031176  0.726789  0.686153
			 0.307977  0.823717  0.476068
			 0.235930  0.919659  0.313951
			-0.349355  0.928758 -0.123935
			 0.263745  0.906400  0.329965
			-0.742952  0.316322  0.589884
			-0.980373  0.181326 -0.077390
			-0.933592  0.278712 -0.225224
			-0.910229  0.230726 -0.343872
			-0.722704  0.687913 -0.066896
		</DataArray>
	</PointData>
	<Points>
		<DataArray type="Float32" NumberOfComponents="3" format="ascii">
			-0.035109 -0.127727 -0.116445
			-0.032114 -0.129913 -0.115593
			-0.039405 -0.132282 -0.119490
			-0.041512 -0.130021 -0.118544
			-0.028753 -0.125879 -0.111708
			-0.040814 -0.126742 -0.116762
			-0.032011 -0.123771 -0.112744
			-0.036508 -0.125289 -0.114797
			-0.033736 -0.130876 -0.113753
			-0.029050 -0.129297 -0.111599
			-0.037250 -0.128985 -0.114100
			-0.043691 -0.128123 -0.115526
			-0.042165 -0.127669 -0.114451
			-0.024910 -0.125120 -0.106606
			-0.025757 -0.121967 -0.107994
			-0.039163 -0.123127 -0.114628
			-0.045189 -0.125742 -0.113773
			-0.026062 -0.118846 -0.107786
			-0.030261 -0.130014 -0.110236
			-0.031780 -0.127655 -0.108394
			-0.037733 -0.126350 -0.111331
			-0.041775 -0.124796 -0.110933
			-0.025968 -0.125895 -0.104496
			-0.024114 -0.122104 -0.102944
			-0.024106 -0.118806 -0.103039
			-0.045612 -0.122749 -0.113074
			-0.040772 -0.120591 -0.114121
			-0.045892 -0.123062 -0.111842
			-0.025378 -0.115479 -0.106585
			-0.028143 -0.126771 -0.104600
			-0.027817 -0.123851 -0.101538
			-0.027073 -0.120724 -0.098698
			-0.043778 -0.122486 -0.110025
			-0.025231 -0.122841 -0.101216
			-0.024301 -0.119389 -0.099912
			-0.023703 -0.115670 -0.101121
			-0.043307 -0.118526 -0.113050
			-0.045507 -0.119535 -0.112402
			-0.029119 -0.113453 -0.108349
			-0.026065 -0.112475 -0.106625
			-0.025021 -0.116829 -0.097287
			-0.028571 -0.118342 -0.096945
			-0.033073 -0.116777 -0.097794
			-0.043813 -0.119477 -0.108434
			-0.023453 -0.112577 -0.099323
			-0.044934 -0.116299 -0.110667
			-0.044348 -0.115871 -0.111834
			-0.030124 -0.110587 -0.108344
			-0.026979 -0.109539 -0.106832
			-0.023828 -0.113439 -0.094925
			-0.026167 -0.114528 -0.094134
			-0.031110 -0.113204 -0.094604
			-0.042229 -0.116141 -0.104740
			-0.022733 -0.109125 -0.098561
			-0.044301 -0.113146 -0.108270
			-0.041909 -0.112084 -0.108763
			-0.027565 -0.106633 -0.106010
			-0.026291 -0.106263 -0.105053
			-0.022395 -0.109854 -0.093172
			-0.024448 -0.110932 -0.091718
			-0.026166 -0.108621 -0.090089
			-0.035724 -0.111536 -0.096380
			-0.041167 -0.112897 -0.101810
			-0.021860 -0.105669 -0.097433
			-0.042936 -0.109890 -0.104638
			-0.043026 -0.109755 -0.105712
			-0.039264 -0.108190 -0.105830
			-0.027921 -0.103888 -0.103598
			-0.021828 -0.102106 -0.099115
			-0.021304 -0.106200 -0.092713
			-0.023000 -0.107365 -0.089804
			-0.028023 -0.106277 -0.089018
			-0.036934 -0.108882 -0.095578
			-0.019937 -0.102119 -0.094208
			-0.041559 -0.106567 -0.101394
			-0.041106 -0.106583 -0.100141
			-0.039807 -0.105696 -0.102336
			-0.026876 -0.100578 -0.101128
			-0.020564 -0.098602 -0.097282
			-0.020538 -0.103089 -0.089710
			-0.022450 -0.104174 -0.087852
			-0.025271 -0.102346 -0.086044
			-0.031643 -0.104344 -0.089892
			-0.017079 -0.098089 -0.091575
			-0.040181 -0.102947 -0.100001
			-0.040307 -0.103301 -0.098124
			-0.022891 -0.096238 -0.097543
			-0.017012 -0.094027 -0.096270
			-0.017258 -0.098725 -0.088081
			-0.019673 -0.100079 -0.085836
			-0.021505 -0.097891 -0.083737
			-0.028466 -0.100445 -0.085635
			-0.035025 -0.102326 -0.090696
			-0.014198 -0.093537 -0.092125
			-0.014142 -0.094273 -0.087409
			-0.038073 -0.099114 -0.098055
			-0.039326 -0.099800 -0.096996
			-0.021295 -0.092268 -0.097756
			-0.015882 -0.089986 -0.098112
			-0.013396 -0.089617 -0.094060
			-0.016138 -0.095514 -0.084799
			-0.021503 -0.094828 -0.082383
			-0.028436 -0.097411 -0.084034
			-0.034320 -0.099027 -0.089014
			-0.012329 -0.090556 -0.085502
			-0.014082 -0.091625 -0.083335
			-0.036019 -0.095756 -0.093307
			-0.035376 -0.095164 -0.095339
			-0.023289 -0.089981 -0.096685
			-0.018604 -0.087488 -0.100210
			-0.014569 -0.086154 -0.098196
			-0.011598 -0.086745 -0.086940
			-0.015740 -0.089402 -0.081015
			-0.023089 -0.092398 -0.081156
			-0.030840 -0.094877 -0.085548
			-0.012187 -0.087525 -0.083600
			-0.033001 -0.091439 -0.092045
			-0.032263 -0.091731 -0.088348
			-0.030736 -0.090087 -0.094666
			-0.021892 -0.085847 -0.098425
			-0.025091 -0.087567 -0.095912
			-0.020402 -0.084745 -0.101474
			-0.015402 -0.082997 -0.099567
			-0.012858 -0.082728 -0.094742
			-0.010794 -0.083401 -0.085291
			-0.016020 -0.086448 -0.079707
			-0.021337 -0.088646 -0.079623
			-0.026927 -0.090602 -0.081743
			-0.011742 -0.084314 -0.082037
			-0.031248 -0.088073 -0.088112
			-0.029363 -0.086527 -0.092905
			-0.028262 -0.087612 -0.083356
			-0.024950 -0.084019 -0.097213
			-0.023528 -0.082777 -0.101307
			-0.020622 -0.081468 -0.102016
			-0.014959 -0.079598 -0.099179
			-0.012102 -0.079713 -0.091177
			-0.013017 -0.079369 -0.095642
			-0.009866 -0.080020 -0.083556
			-0.016837 -0.083712 -0.078416
			-0.022490 -0.085948 -0.078953
			-0.011486 -0.081176 -0.080505
			-0.029142 -0.083754 -0.089192
			-0.029136 -0.084551 -0.084229
			-0.024763 -0.080783 -0.096478
			-0.025903 -0.083876 -0.080172
			-0.024063 -0.079709 -0.101360
			-0.021582 -0.078526 -0.102376
			-0.016063 -0.076600 -0.100251
			-0.011794 -0.076349 -0.090911
			-0.009111 -0.075956 -0.086508
			-0.009705 -0.077003 -0.081513
			-0.018530 -0.081281 -0.077468
			-0.012576 -0.078619 -0.078803
			-0.028040 -0.080679 -0.085115
			-0.026746 -0.080761 -0.081300
			-0.023154 -0.076054 -0.101371
			-0.023566 -0.079902 -0.078518
			-0.020430 -0.074795 -0.102242
			-0.012833 -0.072990 -0.094059
			-0.015673 -0.073286 -0.099470
			-0.009318 -0.072307 -0.089329
			-0.009364 -0.073626 -0.081255
			-0.010969 -0.074713 -0.078601
			-0.017021 -0.077487 -0.076819
			-0.026390 -0.076650 -0.085555
			-0.024718 -0.076918 -0.079630
			-0.023593 -0.072993 -0.101142
			-0.020773 -0.075751 -0.076806
			-0.021130 -0.071861 -0.101886
			-0.017291 -0.070607 -0.099873
			-0.008766 -0.068700 -0.089960
			-0.008858 -0.070025 -0.081964
			-0.011369 -0.071726 -0.077810
			-0.015529 -0.073747 -0.075867
			-0.025722 -0.073250 -0.084607
			-0.023941 -0.073549 -0.078198
			-0.023825 -0.069897 -0.100597
			-0.019779 -0.072225 -0.075796
			-0.021411 -0.068761 -0.101483
			-0.010784 -0.065645 -0.093716
			-0.008290 -0.065235 -0.089898
			-0.008666 -0.066519 -0.082886
			-0.011013 -0.068242 -0.078165
			-0.015199 -0.070359 -0.075707
			-0.025377 -0.070575 -0.079974
			-0.026437 -0.069932 -0.086675
			-0.022678 -0.070041 -0.076396
			-0.023792 -0.066670 -0.100188
			-0.016826 -0.067844 -0.075103
			-0.021084 -0.065606 -0.099882
			-0.009937 -0.062017 -0.093719
			-0.008076 -0.062025 -0.088916
			-0.009015 -0.063531 -0.081963
			-0.011502 -0.065257 -0.077584
			-0.024888 -0.067304 -0.078672
			-0.026461 -0.067142 -0.083695
			-0.023941 -0.063620 -0.099139
			-0.021963 -0.066639 -0.075338
			-0.017920 -0.065123 -0.074433
			-0.012446 -0.062490 -0.076815
			-0.019509 -0.061881 -0.098632
			-0.009646 -0.058543 -0.094191
			-0.008157 -0.058787 -0.088870
			-0.009453 -0.060648 -0.080621
			-0.026326 -0.064442 -0.079747
			-0.022618 -0.063739 -0.074655
			-0.027391 -0.064063 -0.084826
			-0.024143 -0.060630 -0.097862
			-0.018246 -0.062064 -0.073903
			-0.012926 -0.059413 -0.076787
			-0.018283 -0.058425 -0.096597
			-0.010138 -0.055304 -0.095196
			-0.008313 -0.055482 -0.089429
			-0.009310 -0.057090 -0.081993
			-0.025910 -0.061350 -0.077526
			-0.027860 -0.061009 -0.084627
			-0.023106 -0.060766 -0.074002
			-0.025205 -0.058274 -0.094831
			-0.022641 -0.056936 -0.096598
			-0.019816 -0.059511 -0.073392
			-0.014481 -0.056874 -0.076156
			-0.013944 -0.053341 -0.096738
			-0.010398 -0.052099 -0.095393
			-0.008139 -0.052537 -0.086908
			-0.008822 -0.053499 -0.082678
			-0.028057 -0.055524 -0.078454
			-0.028983 -0.054981 -0.084200
			-0.023783 -0.054738 -0.072438
			-0.025998 -0.052270 -0.093414
			-0.020570 -0.049649 -0.095843
			-0.021060 -0.053670 -0.072116
			-0.010552 -0.047787 -0.081842
			-0.012189 -0.046020 -0.096989
			-0.009459 -0.045845 -0.091116
			-0.008253 -0.046198 -0.085840
			-0.026072 -0.049262 -0.071546
			-0.033195 -0.050507 -0.081999
			-0.032126 -0.049269 -0.086968
			-0.027372 -0.046568 -0.091609
			-0.018659 -0.042434 -0.095048
			-0.022836 -0.047973 -0.071297
			-0.007422 -0.039161 -0.086690
			-0.014169 -0.040144 -0.097814
			-0.011093 -0.039162 -0.096060
			-0.036299 -0.045874 -0.077968
			-0.029117 -0.044054 -0.070931
			-0.026425 -0.043063 -0.070218
			-0.037174 -0.045520 -0.082397
			-0.030524 -0.041531 -0.090201
			-0.035832 -0.044220 -0.087046
			-0.021469 -0.037488 -0.092202
			-0.018066 -0.035596 -0.095266
			-0.009920 -0.032710 -0.092404
			-0.006424 -0.031799 -0.089143
			-0.016755 -0.034440 -0.099103
			-0.012855 -0.033115 -0.097377
			-0.032175 -0.038819 -0.070516
			-0.042122 -0.041836 -0.077171
			-0.029702 -0.037859 -0.070176
			-0.018982 -0.031677 -0.081212
			-0.038523 -0.038766 -0.087059
			-0.041606 -0.040914 -0.081576
			-0.033029 -0.036051 -0.089895
			-0.021487 -0.030983 -0.091922
			-0.018802 -0.029554 -0.093941
			-0.009944 -0.025850 -0.094339
			-0.006505 -0.024832 -0.091882
			-0.006927 -0.025296 -0.090076
			-0.017325 -0.028088 -0.099279
			-0.013582 -0.026536 -0.099363
			-0.036355 -0.034023 -0.070239
			-0.033028 -0.032627 -0.070419
			-0.046983 -0.037641 -0.074898
			-0.047615 -0.037610 -0.076702
			-0.024933 -0.027972 -0.078672
			-0.007456 -0.018541 -0.092656
			-0.042619 -0.034353 -0.084185
			-0.036886 -0.031230 -0.088950
			-0.024851 -0.025531 -0.093631
			-0.019983 -0.023106 -0.096273
			-0.014076 -0.020181 -0.099355
			-0.006649 -0.017905 -0.094542
			-0.016833 -0.021266 -0.099660
			-0.035552 -0.027048 -0.070779
			-0.039095 -0.028663 -0.069796
			-0.052722 -0.033561 -0.074150
			-0.051856 -0.032711 -0.077219
			-0.024500 -0.020397 -0.083893
			-0.007657 -0.011512 -0.096088
			-0.013537 -0.014723 -0.091153
			-0.044433 -0.028273 -0.085842
			-0.038473 -0.025258 -0.089357
			-0.027744 -0.020252 -0.093070
			-0.012882 -0.013316 -0.098213
			-0.007728 -0.011234 -0.097999
			-0.032267 -0.017396 -0.081610
			-0.037719 -0.021074 -0.072683
			-0.041857 -0.023121 -0.070536
			-0.057336 -0.029157 -0.072545
			-0.057570 -0.028865 -0.074960
			-0.052102 -0.025301 -0.083140
			-0.026658 -0.013998 -0.088408
			-0.011470 -0.006400 -0.096835
			-0.018211 -0.009945 -0.092020
			-0.044385 -0.021085 -0.089634
			-0.031526 -0.014982 -0.094723
			-0.024573 -0.011827 -0.096564
			-0.019200 -0.009492 -0.097360
			-0.011771 -0.006262 -0.098462
			-0.010854 -0.005863 -0.098599
			-0.039817 -0.015050 -0.074725
			-0.031658 -0.009625 -0.087598
			-0.044471 -0.017332 -0.072423
			-0.061987 -0.024683 -0.071469
			-0.062768 -0.024893 -0.072156
			-0.060317 -0.022945 -0.078011
			-0.051587 -0.017722 -0.088165
			-0.018436 -0.002603 -0.097460
			-0.017933 -0.002217 -0.098576
			-0.042183 -0.012955 -0.093772
			-0.033782 -0.009083 -0.096382
			-0.018616 -0.002513 -0.098482
			-0.043896 -0.009906 -0.076345
			-0.035451 -0.004325 -0.089459
			-0.047821 -0.011990 -0.073417
			-0.066672 -0.020091 -0.071218
			-0.067581 -0.020338 -0.072005
			-0.063855 -0.017501 -0.080115
			-0.057921 -0.013810 -0.087892
			-0.047733 -0.008516 -0.094776
			-0.022137  0.002948 -0.100655
			-0.037918 -0.003862 -0.098631
			-0.050674 -0.006436 -0.074458
			-0.041250 -0.000243 -0.088879
			-0.029901  0.006155 -0.099649
			-0.055103 -0.008599 -0.072329
			-0.070483 -0.015347 -0.069668
			-0.069331 -0.014942 -0.069252
			-0.070344 -0.014758 -0.072982
			-0.064831 -0.010531 -0.085159
			-0.057348 -0.006276 -0.092494
			-0.045714 -0.000398 -0.099312
			-0.032876  0.005499 -0.103174
			-0.025554  0.008604 -0.103774
			-0.054789 -0.001645 -0.073992
			-0.042783  0.006472 -0.093765
			-0.029446  0.013874 -0.105704
			-0.035263  0.010646 -0.100496
			-0.059677 -0.004072 -0.071388
			-0.073510 -0.010240 -0.068387
			-0.074521 -0.010558 -0.068987
			-0.073712 -0.009215 -0.075269
			-0.068368 -0.005261 -0.086183
			-0.058158  0.000559 -0.096280
			-0.050093  0.004668 -0.101221
			-0.038786  0.009906 -0.104891
			-0.029866  0.013943 -0.107201
			-0.028574  0.014527 -0.107535
			-0.058617  0.003330 -0.073920
			-0.052167  0.008574 -0.090036
			-0.041627  0.014799 -0.101801
			-0.048274  0.011166 -0.096198
			-0.031824  0.020157 -0.110065
			-0.062448  0.001225 -0.070628
			-0.076548 -0.005343 -0.065814
			-0.077972 -0.005904 -0.065963
			-0.078662 -0.005999 -0.067140
			-0.076407 -0.003394 -0.077569
			-0.070951  0.000646 -0.088738
			-0.060418  0.006756 -0.099805
			-0.046023  0.013924 -0.107585
			-0.032343  0.020108 -0.111086
			-0.062838  0.008023 -0.073112
			-0.055453  0.014528 -0.094669
			-0.044395  0.021005 -0.106679
			-0.050999  0.017372 -0.100969
			-0.037020  0.025062 -0.113056
			-0.068524  0.004862 -0.067991
			-0.077950  0.000266 -0.063494
			-0.080211 -0.000724 -0.063116
			-0.081598 -0.001176 -0.063848
			-0.081777 -0.000371 -0.069310
			-0.078567  0.002840 -0.081065