<?xml version="1.0"?>
<VTKFile type="PolyData" version="0.1" byte_order="LittleEndian" compressor="vtkZLibDataCompressor">
	<PolyData>
		<Piece NumberOfPoints="596" NumberOfVerts="0" NumberOfLines="0" NumberOfStrips="0" NumberOfPolys="1180">
		<PointData Normals="Normals">
		<DataArray type="Float32" Name="Normals" NumberOfComponents="3" format="ascii">
			-0.908947  0.145656 -0.390641
			-0.964614 -0.130364 -0.229184
			 0.315510  0.011166 -0.948857
			-0.985527 -0.125714 -0.113724
			-0.976961 -0.206573 -0.053625
			-0.669373 -0.070328  0.739590
			-0.334089 -0.058829  0.940704
			-0.891459 -0.346522 -0.291929
			 0.308478 -0.068489 -0.948763
			 0.328630 -0.137589 -0.934383
			 0.961835  0.160834  0.221372
			 0.958000  0.207661 -0.197772
			 0.931404  0.229609  0.282430
			 0.083741 -0.111746  0.990202
			-0.332850 -0.050176  0.941644
			-0.943041 -0.108976 -0.314320
			 0.415803  0.101964  0.903721
			 0.614769  0.137697  0.776594
			-0.307600 -0.086180  0.947605
			 0.720781  0.283545  0.632516
			 0.920728  0.290546  0.260465
			 0.854779  0.291192  0.429604
			 0.327043 -0.057453 -0.943261
			-0.881511 -0.443361 -0.162387
			 0.982879  0.173582 -0.061796
			-0.312517  0.313605 -0.896652
			 0.952019  0.181530  0.246389
			 0.329713  0.015520 -0.943954
			 0.893574  0.305582  0.328855
			-0.364920 -0.005538  0.931022
			 0.946225  0.218398  0.238665
			-0.917579 -0.108564 -0.382443
			 0.880281  0.354711  0.315095
			-0.027331 -0.020446  0.999417
			 0.331276 -0.036679 -0.942821
			-0.790626 -0.575616  0.208749
			 0.352418  0.051178 -0.934442
			-0.334534  0.046438  0.941239
			 0.774540  0.317862  0.546856
			-0.953588 -0.019231 -0.300501
			 0.868190  0.442711  0.224170
			 0.182982  0.137710  0.973424
			 0.414423 -0.062527 -0.907934
			-0.468243 -0.282443  0.837242
			-0.770761 -0.634431 -0.058522
			 0.976965  0.203632 -0.063828
			 0.219787 -0.031999 -0.975023
			-0.369906 -0.033190  0.928476
			-0.931577 -0.175608 -0.318317
			 0.874610  0.467951  0.126803
			 0.290152  0.170506  0.941668
			 0.415005  0.018605 -0.909629
			-0.328500 -0.233886  0.915087
			-0.657523 -0.548222  0.516833
			-0.533408 -0.385429 -0.752942
			 0.826932 -0.259253  0.498971
			 0.555334 -0.519389 -0.649492
			-0.379539 -0.856622 -0.349499
			 0.153960 -0.799417  0.580714
			 0.866559  0.461729  0.189425
			 0.417844  0.205709  0.884924
			 0.453541 -0.093147 -0.886355
			-0.217657 -0.244097  0.945009
			-0.810504 -0.582018 -0.065862
			-0.610810 -0.374043 -0.697856
			 0.859709  0.443376  0.253608
			 0.791676  0.428825  0.435153
			 0.263779  0.058646  0.962799
			 0.912455  0.401214  0.080337
			 0.296683 -0.191100 -0.935660
			-0.678537 -0.472537 -0.562402
			-0.155617 -0.238384  0.958622
			-0.775908 -0.622938  0.099570
			-0.672715 -0.358886 -0.647036
			 0.843989  0.465612  0.266248
			 0.824992  0.500096  0.263233
			 0.756348  0.444880  0.479603
			 0.242836  0.090920  0.965797
			 0.907474  0.419618  0.020290
			 0.514088 -0.135491 -0.846968
			-0.706161 -0.518066 -0.482643
			-0.043433 -0.118694  0.991980
			-0.543290 -0.551440  0.633048
			-0.664996 -0.457431 -0.590371
			-0.647917 -0.426330 -0.631226
			 0.929400  0.346333 -0.127553
			 0.819071  0.484149  0.307771
			 0.763988  0.562697  0.315743
			 0.449257  0.322859  0.833025
			-0.285411 -0.597549 -0.749317
			 0.126844 -0.029376  0.991487
			-0.732414 -0.552034 -0.398532
			-0.345603 -0.433672  0.832158
			-0.562680 -0.431101 -0.705368
			-0.714204 -0.581079 -0.390205
			 0.953296  0.258806 -0.155708
			 0.829366  0.400559  0.389492
			 0.756063  0.509358  0.411002
			 0.517277  0.347965  0.781886
			 0.098678 -0.454746 -0.885138
			-0.731236 -0.663771 -0.157168
			 0.206250 -0.000650  0.978499
			-0.574183 -0.546747 -0.609411
			-0.716911 -0.678673 -0.159504
			-0.479122 -0.526931  0.701987
			-0.722913 -0.635603 -0.270936
			 0.836086  0.271365 -0.476782
			 0.870965  0.361204  0.333095
			 0.792498  0.429985  0.432504
			 0.767952  0.447109  0.458631
			 0.535662  0.359721  0.763981
			 0.335845 -0.084370 -0.938131
			-0.664055 -0.630859 -0.401308
			 0.201631  0.068205  0.977084
			-0.602047 -0.599323 -0.527591
			-0.645373 -0.747914 -0.155298
			-0.332752 -0.448464  0.829551
			-0.739011 -0.630982 -0.236062
			 0.912352  0.409351  0.006691
			 0.693640  0.213329 -0.688007
			 0.781977  0.416766  0.463486
			 0.598569  0.402711  0.692488
			-0.305011 -0.376193 -0.874899
			 0.560305  0.086179 -0.823791
			-0.765977 -0.582288 -0.272434
			 0.199911  0.001687  0.979813
			-0.572589 -0.588910 -0.570374
			-0.343239 -0.492209  0.799948
			-0.588348 -0.795489 -0.145068
			-0.728053 -0.641409 -0.241936
			 0.874818  0.313821 -0.369066
			 0.918736  0.394628 -0.013877
			 0.716834  0.423842  0.553631
			 0.508259  0.256960  0.821976
			-0.731706 -0.583129 -0.352939
			-0.455696 -0.430268 -0.779237
			 0.357311  0.036928 -0.933255
			 0.101792 -0.163539  0.981271
			-0.381634 -0.594666 -0.707621
			-0.579461 -0.625854 -0.522045
			-0.443329 -0.495306  0.747082
			-0.662797 -0.688076  0.295384
			-0.500913 -0.717721 -0.483697
			-0.722161 -0.630082 -0.285448
			 0.071902 -0.089351 -0.993402
			 0.886900  0.452519 -0.092923
			 0.737002  0.406261  0.540167
			 0.712571  0.313403  0.627712
			 0.475149 -0.079797  0.876280
			-0.693990 -0.527031 -0.490527
			-0.039155 -0.273450  0.961089
			-0.388703 -0.455174 -0.801079
			-0.491902 -0.594200 -0.636364
			-0.655600 -0.624020 -0.425191
			-0.517542 -0.410962  0.750507
			-0.699774 -0.613668  0.365688
			-0.737393 -0.618042 -0.272534
			-0.490450 -0.361613 -0.792903
			 0.319189  0.107574 -0.941566
			 0.870333  0.484499 -0.088209
			 0.694133  0.461599  0.552364
			 0.752582  0.406204  0.518285
			 0.777411  0.352547  0.520906
			 0.841286  0.168232  0.513746
			 0.407354 -0.167544  0.897771
			-0.274024 -0.287428  0.917767
			-0.686863 -0.539413 -0.487086
			-0.743067 -0.510839 -0.432312
			-0.510944 -0.442296 -0.737096
			-0.626627 -0.561234 -0.540698
			-0.638856 -0.512703 -0.573584
			-0.748303 -0.407351  0.523552
			 0.088039 -0.068205 -0.993779
			 0.885241  0.424104 -0.191008
			 0.733515  0.425708  0.529838
			 0.791721  0.354713  0.497350
			 0.874236  0.273961  0.400820
			 0.558983  0.050680  0.827629
			-0.242130 -0.172027  0.954872
			-0.580644 -0.226663  0.781969
			-0.759866 -0.546835 -0.351532
			-0.786103 -0.435809  0.438306
			-0.578152 -0.454509 -0.677615
			-0.587432 -0.458618 -0.666779
			 0.197493  0.016606 -0.980164
			 0.573371  0.228693 -0.786731
			 0.728366  0.414477  0.545611
			 0.864110  0.496226  0.084107
			 0.668939  0.359916 -0.650370
			 0.826566  0.385652  0.409952
			 0.639318  0.192646  0.744419
			-0.281269 -0.143125  0.948896
			-0.700211 -0.363872  0.614248
			-0.792356 -0.512546 -0.330861
			-0.564651 -0.431533 -0.703526
			-0.634436 -0.460043 -0.621169
			 0.047355 -0.032527 -0.998348
			 0.553571  0.284014 -0.782876
			 0.833743  0.469114  0.291212
			 0.759307  0.418262  0.498507
			 0.734828  0.394746 -0.551547
			 0.519599  0.281201 -0.806810
			 0.429458  0.221910  0.875398
			-0.404744 -0.144301  0.902973
			-0.742087 -0.330904  0.582932
			-0.740821 -0.453668 -0.495348
			-0.642780 -0.442607 -0.625246
			-0.676918 -0.457174 -0.576866
			-0.048790 -0.123642 -0.991127
			 0.839334  0.536290  0.088942
			 0.776281  0.401735  0.485795
			 0.630999  0.319823  0.706791
			 0.636235  0.366623 -0.678817
			 0.568702  0.240860 -0.786489
			-0.213721 -0.019345  0.976703
			-0.504252 -0.237340  0.830301
			-0.671082 -0.327210  0.665268
			-0.900103 -0.370197  0.229714
			-0.682925 -0.399339 -0.611672
			-0.470466 -0.300600 -0.829639
			-0.716957 -0.397395 -0.572756
			-0.651574 -0.452465 -0.608873
			 0.106734 -0.083126 -0.990807
			 0.857389  0.507675  0.084554
			 0.805619  0.413438  0.424319
			 0.758546  0.325219  0.564660
			-0.051348 -0.033814  0.998108
			 0.730508  0.341585 -0.591336
			 0.597446  0.236096 -0.766366
			-0.544937 -0.376635  0.749126
			-0.821468 -0.349363  0.450706
			-0.803104 -0.362244 -0.473079
			-0.523102 -0.244861 -0.816338
			-0.762511 -0.416127 -0.495394
			-0.538862 -0.366026 -0.758718
			-0.712310 -0.427174 -0.556900
			 0.109107 -0.017585 -0.993874
			 0.871252  0.488781  0.044862
			 0.843641  0.392649  0.366192
			 0.797712  0.272743  0.537836
			 0.224960 -0.062131  0.972385
			-0.535796 -0.395828  0.745817
			 0.666942  0.366975 -0.648474
			 0.549088  0.292330 -0.782972
			-0.888566 -0.356716 -0.288451
			-0.614656 -0.270397 -0.741001
			-0.796168 -0.410349 -0.444669
			-0.788627 -0.410452 -0.457817
			-0.485550 -0.278178 -0.828769
			 0.164741  0.165520 -0.972349
			 0.834107  0.520897 -0.181471
			 0.833433  0.441576  0.332266
			 0.864883  0.342659  0.366828
			 0.638442  0.145611  0.755770
			 0.067548 -0.327043  0.942592
			 0.129922 -0.086656  0.987730
			-0.574636 -0.473876  0.667259
			-0.798055 -0.436049  0.415896
			-0.243783 -0.377972  0.893145
			 0.710913  0.286710 -0.642184
			 0.509590  0.314508 -0.800876
			-0.897012 -0.441548 -0.020107
			-0.598552 -0.253307 -0.759981
			-0.798260 -0.377354 -0.469451
			-0.793158 -0.463641 -0.394889
			-0.775048 -0.315340 -0.547597
			-0.464459 -0.442425 -0.767162
			-0.034194  0.021421 -0.999186
			 0.874067  0.416381  0.250266
			 0.877246  0.450989  0.164464
			 0.959057  0.279401  0.046311
			 0.916492  0.357949 -0.178649
			 0.810464  0.424822  0.403329
			 0.834959  0.206955  0.509915
			 0.814463  0.194498  0.546645
			 0.603739  0.024119  0.796817
			-0.268503 -0.415916  0.868861
			 0.371356 -0.110214  0.921926
			 0.028938 -0.305088  0.951885
			-0.540127 -0.520891  0.661011
			-0.801317 -0.453095  0.390635
			 0.905422  0.332759 -0.263595
			 0.554409  0.263437 -0.789450
			 0.357654  0.196707 -0.912902
			-0.822517 -0.529289 -0.208132
			-0.677028 -0.248583 -0.692705
			-0.835672 -0.387218 -0.389507
			 0.000000  0.000000  0.000000
			-0.807335 -0.503762 -0.307300
			-0.847700 -0.377767 -0.372419
			-0.666250 -0.556757 -0.496118
			-0.761302 -0.544579 -0.351927
			-0.597353 -0.574100 -0.559980
			-0.638232 -0.449804 -0.624769
			-0.081960 -0.139072 -0.986885
			-0.953972  0.280056 -0.107269
			 0.864513  0.452900  0.217944
			 0.937260  0.340925  0.072900
			 0.943285  0.167822  0.286443
			 0.886813  0.423827  0.184210
			 0.704326  0.202793  0.680294
			 0.863076  0.277325  0.422127
			 0.610292  0.156969  0.776469
			 0.390212  0.007052  0.920698
			-0.314636 -0.404926  0.858510
			-0.161474 -0.397083  0.903466
			 0.019523 -0.347662  0.937416
			 0.183163 -0.201838  0.962140
			-0.686226 -0.491895  0.535848
			-0.817425 -0.463392  0.342174
			-0.878084 -0.402312 -0.259064
			 0.481007  0.401027 -0.779621
			 0.088954  0.146857 -0.985150
			-0.644556 -0.216498 -0.733264
			-0.828907 -0.374033 -0.415947
			-0.734353 -0.135228 -0.665161
			-0.837642 -0.476244 -0.267481
			-0.714392 -0.446667 -0.538639
			-0.871601 -0.340928 -0.352249
			-0.753638 -0.431047 -0.496214
			-0.717681 -0.363838 -0.593764
			-0.779041 -0.331935 -0.531897
			-0.573103 -0.282850 -0.769122
			 0.776626  0.574641  0.258147
			 0.692494  0.564637 -0.449040
			 0.903719  0.399789  0.153170
			 0.951403  0.243058  0.189093
			 0.535381 -0.033869  0.843932
			 0.556621  0.019852  0.830530
			 0.824673  0.177784  0.536943
			-0.616553 -0.443109  0.650782
			-0.012456 -0.274265  0.961574
			-0.848052 -0.386880  0.362121
			-0.799360 -0.454049  0.393527
			-0.633311 -0.172000 -0.754542
			-0.780621 -0.352239 -0.516293
			 0.209172  0.311814 -0.926833
			-0.275935  0.067012 -0.958838
			-0.800892 -0.302737 -0.516645
			-0.840144 -0.490106 -0.232282
			-0.915375 -0.177902 -0.361164
			-0.840110  0.124281 -0.527986
			-0.738029 -0.288152 -0.610150
			-0.874758 -0.207269 -0.437994
			-0.891038 -0.221691 -0.396112
			-0.714105 -0.311744 -0.626793
			 0.846477  0.530430 -0.046057
			 0.469604  0.388128 -0.792987
			 0.867232  0.470969  0.161548
			 0.929720  0.364366  0.053452
			 0.926927  0.263029  0.267624
			 0.377420 -0.204838  0.903103
			 0.784877  0.104781  0.610728
			-0.395152 -0.517830  0.758753
			-0.856901 -0.376894  0.351669
			-0.912559 -0.408208 -0.024539
			-0.813905 -0.376787 -0.442256
			-0.530540 -0.118123 -0.839389
			-0.801504 -0.223282 -0.554740
			-0.258433  0.058630 -0.964248
			 0.150424  0.295655 -0.943377
			-0.653077 -0.239121 -0.718548
			-0.834904 -0.475028 -0.278001
			 0.770092  0.518962 -0.370993
			 0.131050  0.249912 -0.959359
			 0.843423  0.525475  0.111867
			 0.944754  0.254578  0.206471
			 0.057785 -0.489096  0.870313
			 0.428906 -0.150796  0.890674
			 0.826321  0.016389  0.562961
			 0.511441 -0.199677  0.835797
			-0.745727 -0.458140  0.483734
			-0.841770 -0.364402  0.398289
			-0.831293 -0.354416 -0.428183
			-0.674772 -0.133493 -0.725853
			-0.866662 -0.388920 -0.312472
			-0.372863  0.011681 -0.927813
			-0.722546 -0.284058 -0.630268
			-0.863810 -0.459340 -0.206977
			 0.624699  0.502864 -0.597393
			-0.050813  0.256658 -0.965166
			 0.551082  0.577561 -0.602273
			 0.838748  0.539480  0.073914
			 0.938263  0.342859 -0.045930
			 0.968803  0.207917  0.134875
			 0.887342  0.150786  0.435761
			-0.701289 -0.436393  0.563698
			 0.013486 -0.474623  0.880086
			 0.663375 -0.088102  0.743082
			 0.100104 -0.350123  0.931339
			-0.927813 -0.276795  0.250093
			-0.783667 -0.394132  0.480132
			-0.894735 -0.370760 -0.248970
			-0.635225 -0.181141 -0.750784
			-0.860619 -0.443690 -0.249948
			-0.479061  0.053697 -0.876137
			-0.774596 -0.251613 -0.580252
			-0.825744 -0.502196 -0.256800
			-0.221005  0.246895 -0.943504
			 0.012186  0.442861 -0.896507
			 0.671421  0.656306 -0.344174
			 0.920855  0.384414 -0.065213
			 0.971218  0.236199 -0.030752
			 0.935863  0.233106  0.264238
			 0.796909  0.142448  0.587064
			-0.647770 -0.412948  0.640209
			-0.874821 -0.372599  0.309609
			 0.572532 -0.101681  0.813553
			-0.641548 -0.424264  0.639075
			 0.025645 -0.404058  0.914374
			-0.663781 -0.513262  0.544019
			-0.670619 -0.163798 -0.723492
			-0.879430 -0.356315 -0.315661
			-0.861353 -0.465727 -0.202901
			-0.849983 -0.494595 -0.181396
			-0.617611 -0.042054 -0.785359
			-0.825567 -0.325953 -0.460645
			-0.425420  0.284217 -0.859208
			 0.490060  0.740925 -0.459208
			-0.152155  0.547861 -0.822616
			 0.812858  0.580072 -0.052710
			 0.926544  0.350656  0.136224
			 0.905521  0.187224  0.380760
			 0.783422 -0.049803  0.619491
			-0.730527 -0.496418  0.468934
			 0.352201 -0.405717  0.843414
			-0.519512 -0.492716  0.698096
			-0.792727 -0.487612  0.365811
			-0.868636 -0.417059 -0.267458
			-0.630389 -0.165313 -0.758473
			-0.796717 -0.154732 -0.584209
			-0.891560 -0.433107 -0.132431
			-0.869999 -0.271905 -0.411303
			-0.786194 -0.034818 -0.616998
			-0.604873  0.373129 -0.703494
			 0.017773  0.770079 -0.637701
			 0.913997  0.403519  0.042209
			 0.928735  0.030953  0.369451
			 0.835908 -0.256464  0.485268
			-0.911870 -0.391555 -0.123198
			 0.262914 -0.536585  0.801844
			-0.458217 -0.512594  0.726144
			-0.707906 -0.596040  0.378953
			-0.842319 -0.390522 -0.371472
			-0.897245 -0.337061 -0.285204
			-0.659907 -0.066703 -0.748381
			-0.853605 -0.017444 -0.520628
			-0.793726  0.130691 -0.594070
			-0.725981  0.152916 -0.670498
			-0.367905  0.547866 -0.751325
			 0.370266  0.802650 -0.467608
			 0.856971  0.470465 -0.210388
			 0.938805  0.341158 -0.047497
			 0.965940  0.095714  0.240412
			 0.643312 -0.484540  0.592765
			-0.681485 -0.004898 -0.731816
			-0.892585 -0.276855 -0.355870
			-0.205775 -0.552352  0.807814
			-0.608954 -0.472085  0.637425
			-0.729468 -0.463075  0.503426
			-0.971020 -0.188199 -0.147310
			-0.912716 -0.298856 -0.278630
			-0.876573 -0.269659 -0.398628
			-0.926749  0.046291 -0.372818
			-0.494045  0.471780 -0.730304
			 0.768422  0.563819 -0.302713
			 0.360874  0.707418 -0.607725
			 0.896319  0.414931 -0.156346
			 0.969140  0.245930  0.016921
			 0.941075 -0.289002  0.175659
			 0.472344 -0.715694  0.514464
			-0.195040 -0.578215  0.792229
			-0.875141 -0.072174 -0.478455
			-0.575860 -0.507302  0.641117
			-0.849552 -0.323089  0.416984
			-0.979505  0.011459 -0.201094
			-0.899273  0.056370 -0.433740
			-0.661137  0.254811 -0.705669
			 0.094403  0.615794 -0.782231
			 0.635637  0.657999 -0.403735
			 0.915492  0.344249 -0.208247
			 0.913768 -0.401243  0.063500
			 0.384181 -0.746349  0.543478
			-0.318363 -0.576468  0.752549
			-0.704110 -0.075732  0.706040
			-0.819508 -0.272627  0.504065
			-0.981791  0.088956  0.167847
			-0.923976  0.324999 -0.201602
			-0.889626  0.297061 -0.346873
			-0.830355  0.233009 -0.506180
			 0.040299  0.621779 -0.782155
			 0.751453  0.531688 -0.390675
			 0.846847  0.476577 -0.236060
			 0.945675 -0.299614 -0.126215
			-0.475295 -0.523482  0.707151
			 0.424858 -0.859746  0.283431
			-0.712001 -0.150848  0.685784
			-0.745815  0.402927  0.530480
			-0.739316  0.438297  0.511183
			-0.875555  0.379491  0.298982
			-0.892455  0.448993 -0.043933
			-0.964298  0.044617 -0.261034
			-0.607276  0.213487 -0.765271
			 0.527508  0.551039 -0.646600
			 0.842101  0.409876 -0.350526
			 0.902821  0.353535 -0.244799
			 0.952424  0.116784 -0.281514
			 0.865331 -0.420031 -0.273452
			-0.583144 -0.430200  0.689109
			-0.812888  0.073253  0.577795
			 0.272878 -0.860707  0.429792
			-0.794464  0.466235  0.389167
			-0.935582  0.299256  0.187435
			-0.925839  0.358620  0.119227
			-0.963769  0.032835 -0.264709
			 0.090925  0.406120 -0.909285
			-0.748042  0.094228 -0.656927
			 0.824040  0.286869 -0.488533
			 0.930310  0.198694 -0.308293
			 0.950591  0.046882 -0.306887
			 0.881102 -0.252274 -0.400022
			 0.799585 -0.577565 -0.164569
			-0.677505 -0.324686  0.659974
			-0.853967  0.148381  0.498721
			-0.251188 -0.585274  0.770946
			 0.416870 -0.693933  0.587091
			-0.867684  0.279718  0.410952
			-0.915673  0.388915  0.101435
			-0.823228  0.469289  0.319473
			-0.959632  0.092786 -0.265513
			 0.452180  0.155027 -0.878351
			-0.576439  0.020240 -0.816890
			 0.852663  0.220979 -0.473428
			 0.954570  0.045182 -0.294540
			 0.885125  0.364311 -0.289535
			 0.834393 -0.371476 -0.407178
			 0.780937 -0.493007 -0.383512
			 0.818218 -0.565656  0.102727
			 0.448073 -0.404739  0.797131
			-0.878055 -0.080052  0.471818
			-0.692725 -0.198553  0.693331
			-0.856048  0.269270  0.441221
			-0.257980 -0.228437  0.938756
			-0.795636  0.538078  0.278271
			-0.831873  0.547680  0.089637
			-0.917623  0.251650 -0.307638
			 0.570561  0.285973 -0.769857
			-0.355907  0.255129 -0.899021
			 0.852216  0.334587 -0.402219
			 0.915125  0.232667 -0.329262
			 0.861625 -0.285255 -0.419800
			 0.815660 -0.450370 -0.363134
			 0.789314 -0.342873  0.509334
			 0.284528 -0.189294  0.939793
			-0.428172  0.137514  0.893173
			-0.882221  0.004604  0.470812
			-0.875814  0.289082  0.386500
			-0.739295  0.142590  0.658112
			-0.761987  0.581260  0.285504
			-0.728947  0.655748  0.196549
			-0.115646  0.856895 -0.502351
			 0.928552  0.008724 -0.371100
			 0.902966 -0.062160 -0.425192
			 0.828251 -0.203800 -0.521983
			 0.940386 -0.125222 -0.316218
			 0.860055  0.090002  0.502199
			-0.106809  0.338205  0.934991
			-0.599696  0.358501  0.715431
			-0.800150  0.403994  0.443338
			-0.872040  0.370022  0.320359
			-0.952132  0.056195  0.300479
			-0.983272 -0.149378  0.104225
			-0.382284  0.552386 -0.740762
			 0.852118  0.416033 -0.317509
			 0.887112  0.284616 -0.363354
			 0.873910  0.014453 -0.485872
			 0.868427  0.338420 -0.362362
			 0.644418  0.706211  0.293242
			-0.164718  0.676767  0.717534
			-0.559019  0.568070  0.603981
			-0.782095  0.469433  0.409829
			-0.624139  0.716065  0.312574
			-0.729900  0.613239  0.301968
			-0.964869 -0.010233  0.262534
			-0.792874  0.524328  0.310532
			-0.582206  0.797022 -0.160597
			-0.859630  0.472969  0.193229
			 0.003063  0.999943 -0.010229
			 0.034989  0.999340 -0.009715
			 0.017029  0.998743 -0.047149
			 0.455678  0.851786 -0.258493
			 0.243474  0.934064 -0.261239
			 0.023639  0.999714  0.003720
			 0.000964  0.962129  0.272595
			-0.388605  0.837810  0.383485
			-0.438278  0.854200  0.279741
		</DataArray>
	</PointData>
	<Points>
		<DataArray type="Float32" NumberOfComponents="3" format="ascii">
			 0.084651 -0.390212 -0.095140
			 0.085171 -0.388795 -0.095394
			 0.087399 -0.390630 -0.097619
			 0.084449 -0.392388 -0.094844
			 0.084399 -0.387376 -0.092217
			 0.084474 -0.389662 -0.090624
			 0.082374 -0.380943 -0.091009
			 0.082120 -0.380341 -0.095408
			 0.087065 -0.388826 -0.097668
			 0.087258 -0.394244 -0.096115
			 0.088360 -0.390801 -0.093433
			 0.087484 -0.389015 -0.095480
			 0.087484 -0.387582 -0.094034
			 0.085127 -0.391902 -0.091047
			 0.086138 -0.395400 -0.091710
			 0.084371 -0.395801 -0.094517
			 0.084252 -0.386387 -0.090700
			 0.085581 -0.390511 -0.091412
			 0.078844 -0.371371 -0.091507
			 0.085553 -0.385555 -0.092564
			 0.086583 -0.384812 -0.094064
			 0.084708 -0.379402 -0.094193
			 0.084670 -0.378518 -0.099743
			 0.078205 -0.370947 -0.095846
			 0.086278 -0.384485 -0.097991
			 0.085979 -0.384783 -0.096518
			 0.088960 -0.393904 -0.093095
			 0.088005 -0.397321 -0.095488
			 0.087909 -0.389123 -0.093663
			 0.086384 -0.398611 -0.091748
			 0.089885 -0.396804 -0.093122
			 0.084682 -0.398951 -0.094768
			 0.081687 -0.369517 -0.095237
			 0.075604 -0.361684 -0.091925
			 0.080932 -0.368941 -0.100832
			 0.071988 -0.362580 -0.096189
			 0.088193 -0.400592 -0.095300
			 0.087253 -0.401569 -0.091559
			 0.090899 -0.399740 -0.092633
			 0.084603 -0.402364 -0.094440
			 0.077256 -0.360472 -0.094925
			 0.071011 -0.352587 -0.092373
			 0.076481 -0.359556 -0.102664
			 0.066826 -0.353933 -0.095404
			 0.064527 -0.354683 -0.097002
			 0.091969 -0.402617 -0.092372
			 0.088705 -0.403661 -0.095477
			 0.087853 -0.404673 -0.091220
			 0.084702 -0.405601 -0.094767
			 0.072646 -0.350759 -0.099210
			 0.066264 -0.343509 -0.093115
			 0.071627 -0.350323 -0.104658
			 0.061284 -0.345272 -0.095728
			 0.057707 -0.346661 -0.096844
			 0.059073 -0.345836 -0.098235
			 0.092684 -0.405604 -0.092475
			 0.089913 -0.406713 -0.093578
			 0.085942 -0.408304 -0.095162
			 0.089014 -0.407583 -0.090443
			 0.067803 -0.342048 -0.097955
			 0.061078 -0.334752 -0.093068
			 0.067873 -0.340519 -0.107192
			 0.056954 -0.336309 -0.094638
			 0.051525 -0.338398 -0.096456
			 0.059912 -0.333407 -0.104518
			 0.063310 -0.332088 -0.103449
			 0.056996 -0.325259 -0.094575
			 0.055044 -0.326463 -0.092438
			 0.064388 -0.330801 -0.108463
			 0.063714 -0.330680 -0.111028
			 0.062859 -0.331294 -0.109563
			 0.051208 -0.327998 -0.093355
			 0.045914 -0.330046 -0.095060
			 0.054651 -0.324815 -0.103657
			 0.058400 -0.323332 -0.102653
			 0.052838 -0.315245 -0.099494
			 0.051899 -0.316574 -0.093848
			 0.050375 -0.317613 -0.091569
			 0.059903 -0.321266 -0.111314
			 0.059126 -0.321108 -0.114391
			 0.058220 -0.321858 -0.112219
			 0.046139 -0.319394 -0.092052
			 0.039482 -0.322239 -0.092537
			 0.039527 -0.321890 -0.094563
			 0.048044 -0.317148 -0.100738
			 0.055669 -0.311240 -0.116514
			 0.049085 -0.304295 -0.109085
			 0.046725 -0.307173 -0.097741
			 0.045613 -0.308528 -0.092399
			 0.053894 -0.311662 -0.118716
			 0.040887 -0.310701 -0.091794
			 0.033171 -0.313968 -0.092535
			 0.033094 -0.314293 -0.090747
			 0.040522 -0.309587 -0.099644
			 0.045965 -0.305510 -0.110043
			 0.051734 -0.301066 -0.121817
			 0.045771 -0.294033 -0.113250
			 0.040922 -0.298480 -0.098970
			 0.038296 -0.300887 -0.091238
			 0.047226 -0.302369 -0.125986
			 0.046956 -0.303040 -0.122583
			 0.034405 -0.302747 -0.090306
			 0.034983 -0.300650 -0.101661
			 0.026446 -0.306058 -0.091438
			 0.026748 -0.306251 -0.089434
			 0.040271 -0.296044 -0.115744
			 0.048291 -0.291300 -0.123277
			 0.047614 -0.292344 -0.118676
			 0.041401 -0.284757 -0.114195
			 0.037839 -0.287853 -0.104755
			 0.031305 -0.293049 -0.090415
			 0.041541 -0.293177 -0.129969
			 0.039345 -0.294379 -0.128510
			 0.026648 -0.295430 -0.088346
			 0.029468 -0.291150 -0.107090
			 0.018019 -0.298924 -0.090162
			 0.019423 -0.298532 -0.088779
			 0.033863 -0.287462 -0.117925
			 0.044767 -0.281832 -0.123115
			 0.041804 -0.282701 -0.125776
			 0.036406 -0.275852 -0.114549
			 0.027772 -0.283127 -0.093081
			 0.035855 -0.284318 -0.131908
			 0.037571 -0.283603 -0.131670
			 0.032719 -0.286417 -0.127457
			 0.019329 -0.287792 -0.087176
			 0.022229 -0.283295 -0.107038
			 0.010912 -0.291305 -0.088305
			 0.009509 -0.291568 -0.090479
			 0.027168 -0.279125 -0.119373
			 0.040472 -0.272425 -0.124662
			 0.037180 -0.262943 -0.123960
			 0.024420 -0.272581 -0.099097
			 0.017687 -0.277268 -0.088427
			 0.026705 -0.277973 -0.127723
			 0.029718 -0.275659 -0.133833
			 0.031388 -0.274858 -0.134249
			 0.008572 -0.281806 -0.085128
			 0.009261 -0.278898 -0.101186
			 0.017153 -0.273572 -0.112650
			 0.003820 -0.283634 -0.086720
			-0.000670 -0.284606 -0.092885
			-0.000526 -0.284236 -0.094772
			 0.019685 -0.271263 -0.120031
			 0.025489 -0.266196 -0.135550
			 0.033212 -0.253570 -0.124418
			 0.026474 -0.258511 -0.112199
			 0.014142 -0.267555 -0.089834
			 0.007902 -0.271164 -0.084482
			 0.021283 -0.268916 -0.130168
			 0.002981 -0.273563 -0.083016
			-0.002765 -0.273303 -0.100162
			 0.006356 -0.267750 -0.109704
			 0.013043 -0.262918 -0.121387
			-0.000885 -0.274926 -0.085074
			-0.007757 -0.276792 -0.092172
			-0.009179 -0.276819 -0.095852
			 0.018508 -0.258237 -0.135443
			 0.021131 -0.256948 -0.136289
			 0.028188 -0.244535 -0.125645
			 0.024840 -0.246808 -0.120698
			 0.018885 -0.251845 -0.105770
			 0.010393 -0.257793 -0.092099
			 0.006862 -0.260904 -0.082476
			 0.004880 -0.262261 -0.079478
			 0.000527 -0.264077 -0.080067
			 0.015308 -0.260437 -0.130543
			-0.014129 -0.267818 -0.096671
			-0.006928 -0.263662 -0.102799
			 0.004872 -0.255484 -0.121268
			 0.007884 -0.252903 -0.129022
			-0.013739 -0.268373 -0.092200
			 0.015326 -0.248392 -0.136682
			 0.023483 -0.235252 -0.127542
			 0.019570 -0.237965 -0.121412
			 0.013017 -0.243825 -0.103033
			 0.005882 -0.249086 -0.089917
			 0.003005 -0.252269 -0.078086
			-0.000080 -0.253654 -0.077897
			-0.005063 -0.255078 -0.082607
			-0.020108 -0.259205 -0.097889
			-0.018850 -0.259458 -0.092925
			-0.009709 -0.253325 -0.105981
			 0.002609 -0.243885 -0.130826
			 0.010480 -0.239214 -0.138314
			 0.014152 -0.238138 -0.135004
			 0.015690 -0.228476 -0.122340
			 0.018478 -0.226465 -0.127190
			 0.017105 -0.226639 -0.129835
			 0.003824 -0.238605 -0.092035
			-0.000023 -0.242776 -0.076740
			-0.002703 -0.243891 -0.077117
			-0.023787 -0.250519 -0.093328
			-0.026089 -0.250593 -0.099098
			-0.014800 -0.244338 -0.107100
			-0.006177 -0.237174 -0.127910
			 0.005626 -0.230253 -0.138624
			 0.009286 -0.229184 -0.135309
			 0.013351 -0.217828 -0.126248
			 0.007986 -0.221226 -0.119825
			 0.012592 -0.217610 -0.129647
			 0.006613 -0.219595 -0.133592
			-0.004356 -0.233542 -0.077326
			-0.007091 -0.234726 -0.077426
			-0.029177 -0.241626 -0.094673
			-0.030894 -0.241576 -0.099626
			-0.019950 -0.235138 -0.109689
			-0.013378 -0.229687 -0.125493
			-0.000008 -0.221549 -0.139465
			 0.008349 -0.208707 -0.127949
			 0.002499 -0.212886 -0.118023
			-0.008531 -0.224266 -0.077739
			 0.006600 -0.209056 -0.130531
			 0.001275 -0.210857 -0.133839
			-0.010487 -0.225179 -0.077410
			-0.021114 -0.228438 -0.086082
			-0.030752 -0.231665 -0.092274
			-0.035163 -0.232398 -0.099694
			-0.034896 -0.231854 -0.102325
			-0.029581 -0.229076 -0.105059
			-0.023505 -0.225232 -0.112311
			-0.018493 -0.220504 -0.127884
			-0.005312 -0.212642 -0.140665
			 0.002298 -0.200342 -0.127829
			-0.002258 -0.203843 -0.118584
			-0.010788 -0.213719 -0.080805
			-0.013148 -0.215153 -0.078349
			 0.001046 -0.200228 -0.131917
			-0.004408 -0.201937 -0.136147
			-0.032546 -0.221979 -0.088778
			-0.035960 -0.222595 -0.094218
			-0.039284 -0.222689 -0.102633
			-0.033699 -0.219760 -0.105573
			-0.027890 -0.216127 -0.112239
			-0.015757 -0.206757 -0.137154
			-0.023556 -0.211551 -0.128715
			-0.010201 -0.203578 -0.141707
			-0.002567 -0.191236 -0.129068
			-0.006418 -0.194610 -0.118694
			-0.014469 -0.204355 -0.080424
			-0.017097 -0.205841 -0.078379
			-0.034875 -0.212573 -0.085001
			-0.004230 -0.191351 -0.132860
			-0.008089 -0.192573 -0.135767
			-0.043640 -0.213619 -0.102272
			-0.037142 -0.210150 -0.106069
			-0.032409 -0.206872 -0.113459
			-0.030228 -0.203945 -0.125595
			-0.019147 -0.196743 -0.139991
			-0.015600 -0.194904 -0.141730
			-0.007809 -0.182352 -0.129956
			-0.010571 -0.185096 -0.120515
			-0.016763 -0.194008 -0.082354
			-0.019320 -0.196281 -0.078112
			-0.024912 -0.198825 -0.076463
			-0.022896 -0.200177 -0.076736
			-0.038533 -0.203592 -0.082199
			-0.041415 -0.203104 -0.087966
			-0.035167 -0.202348 -0.080753
			-0.010639 -0.183755 -0.134048
			-0.013741 -0.184072 -0.136447
			-0.047136 -0.204579 -0.099399
			-0.043005 -0.202025 -0.103957
			-0.037528 -0.198423 -0.111333
			-0.034087 -0.194905 -0.124292
			-0.031971 -0.197515 -0.128007
			-0.026354 -0.189482 -0.138262
			-0.019314 -0.186207 -0.140139
			-0.015080 -0.176046 -0.120448
			-0.012277 -0.176630 -0.131110
			-0.013714 -0.174128 -0.129527
			-0.011252 -0.178655 -0.131482