<?xml version="1.0"?>
<VTKFile type="PolyData" version="0.1" byte_order="LittleEndian" compressor="vtkZLibDataCompressor">
	<PolyData>
		<Piece NumberOfPoints="114" NumberOfVerts="0" NumberOfLines="0" NumberOfStrips="0" NumberOfPolys="224">
		<PointData Normals="Normals">
		<DataArray type="Float32" Name="Normals" NumberOfComponents="3" format="ascii">
			 0.453447 -0.867206  0.205767
			-0.607004 -0.202198  0.768546
			-0.290254 -0.765630  0.574076
			 0.671882 -0.657384 -0.341203
			 0.862685 -0.231187 -0.449808
			-0.080826 -0.538537  0.838716
			-0.674317 -0.174179  0.717606
			-0.659918 -0.013435  0.751217
			-0.277884 -0.901670  0.331319
			 0.600284 -0.741175 -0.300529
			 0.861475 -0.248023 -0.443108
			 0.859602 -0.232449 -0.455030
			 0.744896 -0.645761  0.167696
			-0.838226 -0.499205  0.219479
			-0.752873 -0.029332  0.657512
			-0.693143 -0.143537  0.706364
			-0.778241  0.122386  0.615924
			-0.300192 -0.942909 -0.144247
			 0.055142 -0.898690 -0.435103
			 0.848392 -0.326159 -0.416954
			 0.892805 -0.171105 -0.416679
			 0.844831 -0.401558 -0.353569
			 0.875591 -0.222864 -0.428571
			 0.514864 -0.789814  0.333330
			-0.433549 -0.840151 -0.325854
			-0.836974 -0.506572  0.207024
			-0.807328 -0.038126  0.588870
			-0.709066 -0.238357  0.663635
			-0.882435 -0.464514  0.074400
			 0.392044 -0.707326 -0.588211
			 0.408142 -0.755227 -0.512886
			 0.371595 -0.742088 -0.557873
			 0.797477 -0.535800 -0.277396
			 0.853835 -0.365549 -0.370594
			 0.321315 -0.833837  0.448858
			-0.344827 -0.840240 -0.418440
			-0.920574 -0.385583  0.062198
			-0.798515  0.084911  0.595956
			-0.871787  0.193228  0.450167
			-0.656367 -0.109718  0.746421
			-0.361050 -0.776999 -0.515670
			-0.607037 -0.565869 -0.557941
			 0.146066 -0.779031 -0.609734
			 0.746764 -0.605076 -0.276092
			 0.718873 -0.664507 -0.204091
			 0.849986 -0.417122 -0.321765
			 0.649950 -0.374863  0.661092
			-0.995082  0.048359 -0.086444
			-0.781008  0.279213  0.558629
			-0.817709  0.435987  0.375855
			-0.529945  0.401324  0.747059
			-0.703963 -0.282739 -0.651532
			 0.275445 -0.853058 -0.443196
			 0.908825 -0.260485 -0.325859
			 0.970831  0.001814 -0.239759
			 0.974895 -0.197245 -0.103320
			 0.975138 -0.105076 -0.195104
			 0.812911  0.258942  0.521656
			-0.943522  0.234744 -0.233797
			-0.770262  0.475529  0.424934
			-0.638864  0.596257  0.486139
			-0.851225  0.482219  0.207078
			-0.186515  0.856841  0.480662
			-0.666496 -0.476262 -0.573548
			 0.973498  0.092916 -0.208971
			 0.989846  0.134700  0.045391
			 0.229202 -0.901634 -0.366774
			 0.927113  0.249062 -0.280055
			 0.928608  0.086926 -0.360737
			 0.813849  0.580293 -0.030166
			 0.837102  0.547048 -0.000139
			-0.917974  0.212466 -0.334936
			-0.725259  0.587199  0.359439
			-0.643358  0.652187  0.400928
			-0.476317  0.777616  0.410409
			-0.557263  0.725680  0.403541
			-0.839512  0.525670  0.137442
			 0.183950  0.971378  0.150288
			-0.814683 -0.413134 -0.406954
			-0.825765 -0.292982 -0.481948
			 0.854959  0.496032  0.151649
			-0.657562 -0.347766 -0.668334
			 0.683061  0.146147 -0.715589
			 0.800967  0.597153  0.043130
			 0.925726  0.161329  0.342058
			-0.883933 -0.279390 -0.374972
			 0.731105  0.680473 -0.049431
			 0.790598  0.531423 -0.304212
			 0.729109  0.655376 -0.197185
			 0.737779  0.633833  0.232246
			-0.938260  0.219575 -0.267310
			-0.734329  0.523471  0.432133
			-0.229110  0.949014  0.216518
			-0.893386  0.432561  0.121463
			-0.900521 -0.167052 -0.401442
			-0.940350 -0.024755 -0.339308
			 0.859851  0.396531  0.321590
			-0.583908  0.754472 -0.299704
			 0.560308  0.814363  0.151222
			 0.472784  0.876050 -0.094923
			 0.322744  0.939140  0.117696
			 0.224968  0.946606  0.230925
			 0.495351  0.809262  0.315789
			-0.952735  0.209215 -0.220285
			-0.617207  0.748069  0.243821
			-0.192432  0.935682  0.295750
			-0.573715  0.746186  0.337724
			-0.680281  0.719311  0.140750
			-0.503793  0.861478  0.063636
			-0.894972  0.344759 -0.283137
			-0.943255  0.123034 -0.308437
			-0.093553  0.995216  0.028144
			 0.019564  0.998393  0.053183
			 0.082479  0.995455 -0.047603
		</DataArray>
	</PointData>
	<Points>
		<DataArray type="Float32" NumberOfComponents="3" format="ascii">
			-0.054769 -0.127598 -0.045119
			-0.060809 -0.126128 -0.049300
			-0.062121 -0.129587 -0.051530
			-0.060207 -0.128389 -0.054098
			-0.058415 -0.124619 -0.052567
			-0.052862 -0.123961 -0.042476
			-0.067429 -0.127934 -0.054986
			-0.064840 -0.124023 -0.052299
			-0.069631 -0.131621 -0.058078
			-0.065216 -0.129274 -0.061394
			-0.061124 -0.124833 -0.058160
			-0.060327 -0.121182 -0.058442
			-0.049747 -0.119910 -0.039309
			-0.073139 -0.129035 -0.062730
			-0.068921 -0.125136 -0.055812
			-0.062645 -0.120146 -0.050415
			-0.070242 -0.121994 -0.058330
			-0.071733 -0.131720 -0.062830
			-0.069556 -0.130041 -0.067713
			-0.068012 -0.125379 -0.072372
			-0.066840 -0.122081 -0.069498
			-0.063022 -0.117921 -0.065216
			-0.058001 -0.117419 -0.055509
			-0.047280 -0.116407 -0.034401
			-0.072739 -0.127704 -0.069992
			-0.076163 -0.126473 -0.066008
			-0.072345 -0.119134 -0.061101
			-0.056119 -0.115534 -0.042027
			-0.079276 -0.123409 -0.072620
			-0.069539 -0.125500 -0.075520
			-0.070592 -0.121878 -0.080345
			-0.069400 -0.116964 -0.087468
			-0.064695 -0.113670 -0.075536
			-0.052595 -0.113543 -0.045402
			-0.045142 -0.113097 -0.029123
			-0.075027 -0.124781 -0.073623
			-0.080307 -0.120193 -0.074867
			-0.068194 -0.115038 -0.055575
			-0.078382 -0.116821 -0.070520
			-0.043965 -0.109618 -0.027358
			-0.075207 -0.120316 -0.081463
			-0.079308 -0.118888 -0.080425
			-0.068174 -0.112154 -0.093857
			-0.055239 -0.108424 -0.063599
			-0.058698 -0.108229 -0.073658
			-0.041643 -0.108521 -0.028249
			-0.040549 -0.108529 -0.025405
			-0.081153 -0.116741 -0.078103
			-0.062354 -0.110544 -0.048204
			-0.076524 -0.112593 -0.071678
			-0.042232 -0.105862 -0.025901
			-0.077069 -0.113969 -0.084905
			-0.062011 -0.104993 -0.102260
			-0.048182 -0.104086 -0.052155
			-0.052679 -0.103496 -0.067322
			-0.057149 -0.101491 -0.091215
			-0.040537 -0.105089 -0.026374
			-0.040401 -0.105107 -0.025916
			-0.079748 -0.112294 -0.081774
			-0.067253 -0.107519 -0.059142
			-0.055631 -0.105159 -0.044124
			-0.077336 -0.108207 -0.080638
			-0.040597 -0.100766 -0.033023
			-0.064145 -0.102435 -0.103222
			-0.056197 -0.096830 -0.117772
			-0.056747 -0.099520 -0.102446
			-0.057516 -0.097249 -0.118541
			-0.054979 -0.100858 -0.069209
			-0.045755 -0.100369 -0.048673
			-0.039324 -0.100029 -0.034357
			-0.058743 -0.099504 -0.087246
			-0.076135 -0.106834 -0.086111
			-0.070004 -0.103717 -0.069432
			-0.062049 -0.102619 -0.055926
			-0.047580 -0.098775 -0.042857
			-0.049980 -0.099413 -0.045024
			-0.075090 -0.103953 -0.080963
			-0.045532 -0.097880 -0.043193
			-0.064506 -0.098248 -0.109798
			-0.067587 -0.101050 -0.100242
			-0.059049 -0.096377 -0.107489
			-0.054489 -0.089136 -0.140872
			-0.051633 -0.088022 -0.140505
			-0.050682 -0.088116 -0.137488
			-0.053754 -0.090545 -0.130225
			-0.057421 -0.091803 -0.131776
			-0.060247 -0.096803 -0.087501
			-0.053967 -0.097594 -0.066530
			-0.046384 -0.097191 -0.049657
			-0.060063 -0.093747 -0.106039
			-0.073497 -0.101843 -0.090011
			-0.068485 -0.098883 -0.075219
			-0.055838 -0.095735 -0.062480
			-0.071996 -0.099029 -0.083284
			-0.065499 -0.095813 -0.107082
			-0.057274 -0.088758 -0.129942
			-0.054715 -0.087898 -0.128755
			-0.055440 -0.087185 -0.135040
			-0.053135 -0.086337 -0.134425
			-0.062206 -0.095503 -0.080196
			-0.064664 -0.094013 -0.095751
			-0.059780 -0.088395 -0.118209
			-0.061991 -0.090717 -0.109412
			-0.070545 -0.096393 -0.095972
			-0.069880 -0.095264 -0.080902
			-0.063943 -0.093995 -0.073618
			-0.066110 -0.094459 -0.076277
			-0.070286 -0.094436 -0.087085
			-0.070420 -0.094163 -0.089132
			-0.061984 -0.089133 -0.119257
			-0.065070 -0.091749 -0.110865
			-0.068270 -0.093605 -0.087107
			-0.064367 -0.093486 -0.077868
			-0.066298 -0.093545 -0.082438
		</DataArray>
	</Points>
			<Polys>
				<DataArray type="Int32" Name="connectivity" format="ascii">
					0 1 2 
					3 0 2 
					0 4 5 
					5 1 0 
					0 3 4 
					1 6 2 
					1 7 6 
					5 7 1 
					2 6 8 
					8 3 2 
					3 8 9 
					10 4 3 
					10 3 9 
					4 11 12 
					11 4 10 
					5 4 12 
					12 7 5 
					8 6 13 
					14 13 6 
					7 14 6 
					12 15 7 
					7 16 14 
					15 16 7 
					13 17 8 
					8 17 9 
					17 18 9 
					19 10 9 
					9 18 19 
					19 20 10 
					20 11 10 
					21 22 11 
					22 12 11 
					11 20 21 
					12 22 23 
					23 15 12 
					13 18 17 
					18 13 24 
					13 14 25 
					25 24 13 
					16 25 14 
					15 26 16 
					27 26 15 
					27 15 23 
					25 16 28 
					26 28 16 
					18 24 29 
					29 19 18 
					20 19 29 
					30 20 29 
					21 20 30 
					31 21 30 
					31 32 21 
					32 22 21 
					33 23 22 
					32 33 22 
					23 33 34 
					34 27 23 
					35 29 24 
					24 25 35 
					28 35 25 
					28 26 36 
					27 37 26 
					38 36 26 
					26 37 38 
					34 39 27 
					39 37 27 
					28 40 35 
					36 40 28 
					29 35 30 
					40 30 35 
					30 40 31 
					31 41 42 
					42 32 31 
					41 31 40 
					32 43 33 
					44 43 32 
					44 32 42 
					43 45 33 
					45 34 33 
					34 46 39 
					45 46 34 
					40 36 41 
					47 41 36 
					38 47 36 
					39 48 37 
					49 38 37 
					48 49 37 
					49 47 38 
					50 39 46 
					39 50 48 
					51 42 41 
					41 47 51 
					42 51 52 
					52 44 42 
					43 53 45 
					54 53 43 
					54 43 44 
					52 55 44 
					55 54 44 
					53 56 45 
					56 46 45 
					46 57 50 
					56 57 46 
					51 47 58 
					47 49 58 
					48 59 49 
					60 48 50 
					60 59 48 
					61 58 49 
					59 61 49 
					62 50 57 
					50 62 60 
					51 58 63 
					52 51 63 
					64 65 52 
					52 63 66 
					66 64 52 
					65 55 52 
					67 68 53 
					68 69 53 
					53 54 67 
					69 56 53 
					55 70 54 
					54 70 67 
					70 55 65 
					56 62 57 
					56 69 62 
					71 63 58 
					61 71 58 
					59 72 61 
					60 73 59 
					59 73 72 
					74 60 62 
					60 75 73 
					60 74 75 
					61 76 71 
					72 76 61 
					77 62 69 
					62 77 74 
					78 66 63 
					79 78 63 
					63 71 79 
					64 80 65 
					64 66 80 
					65 80 70 
					66 81 82 
					82 83 66 
					66 84 80 
					66 83 84 
					85 81 66 
					78 85 66 
					67 86 87 
					67 70 86 
					87 68 67 
					68 87 88 
					68 88 77 
					77 69 68 
					89 70 80 
					70 89 86 
					71 90 79 
					76 90 71 
					72 91 76 
					73 92 72 
					92 91 72 
					75 92 73 
					92 74 77 
					74 92 75 
					76 93 90 
					91 93 76 
					92 77 88 
					79 94 78 
					78 95 85 
					94 95 78 
					90 94 79 
					96 80 84 
					80 96 89 
					97 82 81 
					85 97 81 
					82 97 83 
					98 84 83 
					97 98 83 
					98 96 84 
					95 97 85 
					99 87 86 
					100 86 89 
					86 100 99 
					92 88 87 
					87 99 92 
					101 89 96 
					89 101 102 
					89 102 100 
					90 93 103 
					94 90 103 
					91 104 93 
					92 105 91 
					91 105 106 
					106 104 91 
					105 92 99 
					104 107 93 
					107 108 93 
					108 103 93 
					94 109 95 
					103 110 94 
					110 109 94 
					95 109 97 
					98 101 96 
					97 101 98 
					109 101 97 
					111 99 100 
					99 112 105 
					113 112 99 
					99 111 113 
					108 100 102 
					100 108 111 
					108 101 109 
					108 102 101 
					103 108 110 
					111 107 104 
					104 106 112 
					104 113 111 
					112 113 104 
					112 106 105 
					108 107 111 
					110 108 109 
				</DataArray>
				<DataArray type="Int32" Name="offsets" format="ascii">
					3 6 9 12 15 18 21 24 27 30 33 36 39 42 45 48 51 54 57 60 63 66 69 72 75 78 81 84 87 90 93 96 99 102 105 108 111 114 117 120 123 126 129 132 135 138 141 144 147 150 153 156 159 162 165 168 171 174 177 180 183 186 189 192 195 198 201 204 207 210 213 216 219 222 225 228 231 234 237 240 243 246 249 252 255 258 261 264 267 270 273 276 279 282 285 288 291 294 297 300 303 306 309 312 315 318 321 324 327 330 333 336 339 342 345 348 351 354 357 360 363 366 369 372 375 378 381 384 387 390 393 396 399 402 405 408 411 414 417 420 423 426 429 432 435 438 441 444 447 450 453 456 459 462 465 468 471 474 477 480 483 486 489 492 495 498 501 504 507 510 513 516 519 522 525 528 531 534 537 540 543 546 549 552 555 558 561 564 567 570 573 576 579 582 585 588 591 594 597 600 603 606 609 612 615 618 621 624 627 630 633 636 639 642 645 648 651 654 657 660 663 666 669 672 
				</DataArray>
			</Polys>
		</Piece>
	</PolyData>
</VTKFile>
