<?xml version="1.0"?>
<VTKFile type="PolyData" version="0.1" byte_order="LittleEndian" compressor="vtkZLibDataCompressor">
	<PolyData>
		<Piece NumberOfPoints="140" NumberOfVerts="0" NumberOfLines="0" NumberOfStrips="0" NumberOfPolys="276">
		<PointData Normals="Normals">
		<DataArray type="Float32" Name="Normals" NumberOfComponents="3" format="ascii">
			-0.130767 -0.886905 -0.443058
			 0.989042 -0.146648  0.017017
			 0.903820 -0.421265  0.075143
			 0.482142 -0.264896 -0.835087
			-0.700882 -0.477077 -0.530246
			-0.271677 -0.845620 -0.459477
			-0.608229 -0.420469 -0.673248
			 0.842890  0.538035  0.007422
			 0.930208  0.350142  0.110062
			 0.972285  0.102821  0.209976
			 0.865512 -0.488619  0.110180
			 0.430095  0.489424 -0.758606
			-0.836957 -0.298103 -0.458952
			-0.795261 -0.385995 -0.467512
			-0.710768 -0.367926 -0.599533
			-0.278702 -0.884033 -0.375247
			-0.181970  0.149305 -0.971903
			 0.827518  0.519669 -0.212507
			 0.994241  0.079939  0.071379
			 0.949035 -0.022912  0.314336
			 0.962159 -0.040099  0.269523
			 0.671712 -0.739101  0.050334
			-0.801809 -0.513631 -0.305428
			-0.881237 -0.263988 -0.392086
			-0.894271 -0.224782 -0.386979
			-0.796963 -0.252113 -0.548898
			 0.084683  0.253066 -0.963736
			-0.156708 -0.957075 -0.243825
			 0.912588  0.307289 -0.269733
			 0.972234 -0.039005  0.230739
			 0.997716  0.066667  0.010898
			 0.913544 -0.128123  0.386032
			 0.917509  0.058441  0.393397
			 0.870584  0.164201  0.463812
			-0.042221 -0.982502 -0.181404
			 0.710612 -0.674867  0.198960
			 0.356540 -0.932465  0.058203
			-0.578971 -0.812724 -0.065365
			-0.852175 -0.430157 -0.297929
			-0.945702 -0.143830 -0.291480
			-0.899676 -0.274243 -0.339668
			-0.895173 -0.208768 -0.393804
			-0.889114 -0.265486 -0.372818
			-0.268291  0.045046 -0.962284
			-0.806121 -0.268448 -0.527357
			 0.735816  0.342097 -0.584418
			 0.953662  0.288361 -0.085894
			 0.897532  0.097590  0.430013
			 0.975854  0.125175  0.178996
			 0.909997  0.080447  0.406736
			 0.800442  0.339808  0.493785
			 0.669071  0.493692  0.555529
			 0.740545  0.346842  0.575582
			 0.789337 -0.219740  0.573291
			-0.058168 -0.757286  0.650488
			-0.826275 -0.560429  0.056472
			-0.605278 -0.295488  0.739138
			-0.923760 -0.382817 -0.010858
			-0.966671 -0.240146 -0.088749
			-0.898322 -0.205388 -0.388373
			-0.916787 -0.181463 -0.355771
			-0.420048 -0.075987 -0.904315
			 0.591764  0.183250 -0.785006
			-0.832377 -0.235142 -0.501854
			 0.963719  0.157363 -0.215597
			 0.980851  0.170637  0.093881
			 0.929725  0.061250  0.363126
			 0.828468  0.142893  0.541501
			 0.346262  0.444331  0.826240
			 0.121343  0.401488  0.907790
			 0.366691  0.462847  0.807038
			 0.725945  0.323440  0.606952
			 0.133666  0.464466  0.875445
			-0.695271 -0.034695  0.717910
			-0.623456  0.151848  0.766971
			-0.822982  0.141913  0.550055
			-0.936919 -0.210806 -0.278825
			-0.989417 -0.065026  0.129714
			-0.895059 -0.204671 -0.396206
			-0.914230 -0.173868 -0.365997
			-0.758725 -0.160288 -0.631382
			-0.878375 -0.312669 -0.361517
			 0.177848 -0.033973 -0.983471
			 0.883155  0.080829 -0.462064
			 0.990036  0.138594 -0.024920
			 0.971002  0.092825  0.220315
			 0.885980 -0.015875  0.463451
			 0.760490  0.216756  0.612105
			 0.318239  0.551979  0.770742
			-0.595820  0.414985  0.687594
			-0.992442 -0.000320  0.122715
			-0.914848 -0.168938 -0.366759
			-0.826066 -0.326071 -0.459666
			-0.886330 -0.178560 -0.427242
			-0.499587 -0.289646 -0.816406
			-0.988182  0.116039  0.100152
			-0.924989 -0.214031 -0.313984
			 0.544149 -0.125353 -0.829571
			 0.942166  0.176285 -0.285037
			 0.953097  0.289631  0.087865
			 0.913504  0.197441  0.355707
			 0.836307  0.013946  0.548084
			 0.385632  0.405253  0.828890
			-0.464722  0.566102  0.680854
			-0.908626 -0.117238 -0.400816
			-0.872695 -0.194368 -0.447911
			-0.939645 -0.045042 -0.339174
			-0.207758 -0.349501 -0.913611
			-0.557597  0.524640  0.643302
			-0.982394  0.186645  0.008157
			 0.953063  0.225636 -0.201891
			 0.664690 -0.092911 -0.741320
			 0.883925  0.418858  0.207929
			 0.860710  0.248669  0.444232
			 0.742260  0.137794  0.655791
			 0.161111  0.433367  0.886700
			-0.926789 -0.093817 -0.363675
			-0.969698  0.103960 -0.221084
			-0.920221 -0.117575 -0.373321
			-0.324818 -0.231747 -0.916944
			-0.836019  0.430492  0.340218
			-0.336788  0.594575  0.730106
			 0.821379  0.552556  0.141488
			 0.921686  0.362471 -0.138236
			 0.755725  0.143467 -0.638981
			 0.725361  0.604083  0.330054
			 0.666927  0.453299  0.591378
			 0.232133  0.556345  0.797869
			-0.733054  0.678901 -0.041541
			-0.847122  0.512622 -0.140013
			-0.696956  0.704664  0.133046
			-0.873866  0.456880 -0.166191
			-0.523572  0.403332 -0.750464
			 0.315687  0.725455 -0.611602
			-0.423359  0.724847  0.543475
			 0.262193  0.939621  0.219925
			 0.367588  0.929955  0.007886
			 0.229352  0.907115  0.352902
			 0.017582  0.825257  0.564483
			-0.007949  0.910445  0.413554
		</DataArray>
	</PointData>
	<Points>
		<DataArray type="Float32" NumberOfComponents="3" format="ascii">
			-0.057800 -0.117194 -0.137974
			-0.055379 -0.116509 -0.136054
			-0.057140 -0.118675 -0.127078
			-0.055127 -0.115455 -0.141963
			-0.060316 -0.115064 -0.137262
			-0.063829 -0.121117 -0.128980
			-0.059249 -0.114277 -0.139432
			-0.057054 -0.113356 -0.139549
			-0.056586 -0.113894 -0.135004
			-0.059391 -0.117371 -0.120544
			-0.059035 -0.121006 -0.117424
			-0.057217 -0.113168 -0.141130
			-0.067418 -0.120306 -0.122806
			-0.065051 -0.114747 -0.130937
			-0.062723 -0.112889 -0.136546
			-0.068245 -0.124589 -0.118672
			-0.059357 -0.110852 -0.140615
			-0.058520 -0.110740 -0.139171
			-0.057864 -0.112399 -0.127177
			-0.060740 -0.119043 -0.113590
			-0.059799 -0.115018 -0.115831
			-0.068721 -0.128135 -0.097828
			-0.075846 -0.127373 -0.100387
			-0.071196 -0.119653 -0.116128
			-0.072324 -0.116909 -0.115686
			-0.064103 -0.110246 -0.136117
			-0.060811 -0.108299 -0.139812
			-0.073313 -0.129573 -0.100621
			-0.059137 -0.108019 -0.137275
			-0.059176 -0.111090 -0.118272
			-0.057861 -0.109006 -0.127877
			-0.067399 -0.124568 -0.096248
			-0.069128 -0.122473 -0.093300
			-0.066771 -0.117332 -0.098861
			-0.073821 -0.131351 -0.090862
			-0.072259 -0.130741 -0.090668
			-0.073928 -0.131723 -0.088824
			-0.079346 -0.132627 -0.076651
			-0.079518 -0.127873 -0.086269
			-0.077024 -0.125055 -0.097425
			-0.076198 -0.120608 -0.102571
			-0.071044 -0.112313 -0.120606
			-0.073057 -0.114127 -0.114464
			-0.062429 -0.105801 -0.139091
			-0.065477 -0.107728 -0.134893
			-0.061178 -0.105382 -0.138501
			-0.058592 -0.105765 -0.129507
			-0.061674 -0.110235 -0.109585
			-0.058657 -0.107288 -0.120197
			-0.075624 -0.131391 -0.074828
			-0.072902 -0.125488 -0.084187
			-0.079324 -0.126213 -0.075701
			-0.080407 -0.123165 -0.077029
			-0.076342 -0.131986 -0.072959
			-0.077747 -0.132661 -0.072354
			-0.081717 -0.130356 -0.076437
			-0.080468 -0.130372 -0.073145
			-0.083350 -0.127440 -0.078354
			-0.084414 -0.124364 -0.079811
			-0.069794 -0.107610 -0.126268
			-0.080216 -0.116317 -0.098743
			-0.063926 -0.103194 -0.138736
			-0.061978 -0.102489 -0.138143
			-0.066957 -0.105185 -0.134100
			-0.060220 -0.102388 -0.134280
			-0.059378 -0.104276 -0.120375
			-0.061445 -0.106561 -0.111453
			-0.071860 -0.113802 -0.093031
			-0.079102 -0.129902 -0.072583
			-0.080344 -0.126934 -0.073819
			-0.081513 -0.123928 -0.075109
			-0.077114 -0.117454 -0.083738
			-0.082470 -0.120849 -0.076311
			-0.081682 -0.127508 -0.073671
			-0.082693 -0.124396 -0.075211
			-0.083709 -0.121267 -0.076876
			-0.083295 -0.119666 -0.085779
			-0.084668 -0.121157 -0.080009
			-0.077075 -0.110703 -0.105240
			-0.072313 -0.106090 -0.121761
			-0.065910 -0.100956 -0.137329
			-0.082441 -0.114870 -0.093026
			-0.063296 -0.099710 -0.138400
			-0.060906 -0.099120 -0.135966
			-0.059690 -0.100142 -0.126496
			-0.060247 -0.102189 -0.115191
			-0.064003 -0.105268 -0.105635
			-0.075957 -0.113036 -0.087864
			-0.081730 -0.116788 -0.079285
			-0.083770 -0.117710 -0.078761
			-0.085372 -0.117993 -0.081097
			-0.072627 -0.103098 -0.120780
			-0.079876 -0.108939 -0.102972
			-0.069138 -0.099901 -0.131751
			-0.065473 -0.097265 -0.138782
			-0.085410 -0.114169 -0.084587
			-0.083724 -0.112040 -0.093517
			-0.063615 -0.096449 -0.139107
			-0.061122 -0.095960 -0.135770
			-0.060320 -0.097988 -0.121110
			-0.061947 -0.100393 -0.110306
			-0.068780 -0.105298 -0.097263
			-0.081139 -0.112744 -0.082530
			-0.083567 -0.113835 -0.081956
			-0.077152 -0.103436 -0.109847
			-0.068671 -0.095905 -0.135011
			-0.082554 -0.107467 -0.098571
			-0.065245 -0.093649 -0.140292
			-0.083348 -0.110006 -0.084815
			-0.084538 -0.109914 -0.088426
			-0.061893 -0.092938 -0.136152
			-0.063804 -0.093099 -0.140032
			-0.061789 -0.096025 -0.116674
			-0.065084 -0.099304 -0.104704
			-0.071695 -0.103925 -0.092852
			-0.080113 -0.108662 -0.084903
			-0.076066 -0.098897 -0.114906
			-0.083119 -0.104833 -0.096008
			-0.070694 -0.094377 -0.129293
			-0.066151 -0.090554 -0.141464
			-0.083476 -0.106122 -0.088904
			-0.080887 -0.105351 -0.087085
			-0.062748 -0.091723 -0.125493
			-0.062648 -0.089908 -0.136527
			-0.064415 -0.089938 -0.140857
			-0.064752 -0.095118 -0.109496
			-0.068912 -0.098632 -0.098271
			-0.077657 -0.103938 -0.087616
			-0.078585 -0.097815 -0.107680
			-0.070897 -0.090994 -0.130459
			-0.082709 -0.101898 -0.092824
			-0.068221 -0.088620 -0.138388
			-0.067036 -0.087569 -0.141898
			-0.065352 -0.087015 -0.141033
			-0.081192 -0.101574 -0.090962
			-0.065149 -0.089039 -0.127933
			-0.063953 -0.087167 -0.136511
			-0.069020 -0.094585 -0.103319
			-0.076995 -0.099704 -0.091863
			-0.072519 -0.097142 -0.096359
		</DataArray>
	</Points>
			<Polys>
				<DataArray type="Int32" Name="connectivity" format="ascii">
					0 1 2 
					3 1 0 
					4 0 5 
					5 0 2 
					0 4 6 
					3 0 6 
					7 1 3 
					8 2 1 
					7 8 1 
					2 9 10 
					10 5 2 
					8 9 2 
					3 6 11 
					11 7 3 
					12 4 5 
					12 13 4 
					4 13 14 
					14 6 4 
					12 5 15 
					15 5 10 
					16 11 6 
					6 14 16 
					7 17 8 
					7 11 17 
					17 18 8 
					9 8 18 
					9 19 10 
					9 20 19 
					9 18 20 
					10 19 21 
					15 10 21 
					11 16 17 
					22 12 15 
					22 23 12 
					23 13 12 
					13 24 25 
					25 14 13 
					24 13 23 
					26 16 14 
					14 25 26 
					27 15 21 
					22 15 27 
					16 26 17 
					17 28 18 
					26 28 17 
					29 20 18 
					18 28 30 
					18 30 29 
					21 19 31 
					20 32 19 
					31 19 32 
					20 33 32 
					29 33 20 
					27 21 34 
					21 35 34 
					31 35 21 
					34 22 27 
					36 37 22 
					34 36 22 
					38 22 37 
					22 39 23 
					38 39 22 
					40 24 23 
					23 39 40 
					41 25 24 
					40 42 24 
					24 42 41 
					43 26 25 
					25 44 43 
					25 41 44 
					45 28 26 
					43 45 26 
					28 46 30 
					45 46 28 
					29 47 33 
					48 47 29 
					29 30 48 
					46 48 30 
					31 36 35 
					31 49 36 
					31 50 49 
					32 50 31 
					33 50 32 
					33 51 50 
					33 52 51 
					33 47 52 
					35 36 34 
					36 53 54 
					54 37 36 
					49 53 36 
					55 38 37 
					56 55 37 
					56 37 54 
					38 40 39 
					57 40 38 
					38 55 57 
					40 57 58 
					58 42 40 
					59 44 41 
					59 41 42 
					60 59 42 
					42 58 60 
					61 43 44 
					62 45 43 
					61 62 43 
					44 63 61 
					44 59 63 
					45 64 46 
					62 64 45 
					64 65 46 
					48 46 65 
					48 66 47 
					67 52 47 
					66 67 47 
					48 65 66 
					49 68 53 
					49 50 68 
					51 68 50 
					51 69 68 
					52 70 51 
					70 69 51 
					52 71 72 
					70 52 72 
					67 71 52 
					68 54 53 
					68 56 54 
					55 73 57 
					55 56 73 
					56 69 73 
					69 56 68 
					74 57 73 
					57 74 58 
					75 58 74 
					76 60 58 
					75 77 58 
					77 76 58 
					60 78 59 
					59 79 80 
					59 78 79 
					80 63 59 
					76 81 60 
					60 81 78 
					80 61 63 
					82 62 61 
					80 82 61 
					82 83 62 
					64 62 83 
					64 84 65 
					83 84 64 
					84 85 65 
					85 66 65 
					85 86 66 
					67 66 86 
					86 87 67 
					87 71 67 
					74 73 69 
					69 70 74 
					74 70 72 
					88 72 71 
					87 88 71 
					72 75 74 
					89 75 72 
					72 88 89 
					75 89 77 
					76 90 81 
					76 77 90 
					89 90 77 
					91 79 78 
					92 78 81 
					92 91 78 
					93 80 79 
					79 91 93 
					94 82 80 
					80 93 94 
					95 81 90 
					81 95 96 
					96 92 81 
					82 94 97 
					83 82 97 
					84 83 98 
					97 98 83 
					84 99 85 
					98 99 84 
					99 100 85 
					86 85 100 
					86 101 87 
					86 100 101 
					87 102 88 
					87 101 102 
					103 89 88 
					102 103 88 
					89 103 90 
					103 95 90 
					92 104 91 
					91 104 105 
					105 93 91 
					92 106 104 
					92 96 106 
					105 94 93 
					94 105 107 
					107 97 94 
					103 108 95 
					95 109 96 
					95 108 109 
					109 106 96 
					97 110 98 
					97 107 111 
					111 110 97 
					98 110 99 
					99 112 100 
					110 112 99 
					112 113 100 
					101 100 113 
					114 102 101 
					113 114 101 
					108 103 102 
					102 115 108 
					114 115 102 
					116 105 104 
					117 116 104 
					104 106 117 
					118 119 105 
					105 116 118 
					119 107 105 
					117 106 109 
					119 111 107 
					108 120 109 
					108 115 121 
					121 120 108 
					120 117 109 
					110 122 112 
					111 123 110 
					110 123 122 
					111 119 124 
					111 124 123 
					112 122 125 
					113 112 125 
					113 126 114 
					113 125 126 
					114 127 115 
					114 126 127 
					115 127 121 
					117 128 116 
					128 129 116 
					118 116 129 
					130 128 117 
					130 117 120 
					118 131 119 
					118 129 131 
					119 132 133 
					131 132 119 
					133 124 119 
					121 134 120 
					134 130 120 
					134 121 127 
					135 125 122 
					135 122 123 
					123 136 135 
					136 123 124 
					124 133 136 
					125 135 137 
					137 126 125 
					138 127 126 
					126 137 139 
					126 139 138 
					138 134 127 
					135 129 128 
					139 128 130 
					137 128 139 
					135 128 137 
					136 131 129 
					136 129 135 
					138 130 134 
					139 130 138 
					133 131 136 
					132 131 133 
				</DataArray>
				<DataArray type="Int32" Name="offsets" format="ascii">
					3 6 9 12 15 18 21 24 27 30 33 36 39 42 45 48 51 54 57 60 63 66 69 72 75 78 81 84 87 90 93 96 99 102 105 108 111 114 117 120 123 126 129 132 135 138 141 144 147 150 153 156 159 162 165 168 171 174 177 180 183 186 189 192 195 198 201 204 207 210 213 216 219 222 225 228 231 234 237 240 243 246 249 252 255 258 261 264 267 270 273 276 279 282 285 288 291 294 297 300 303 306 309 312 315 318 321 324 327 330 333 336 339 342 345 348 351 354 357 360 363 366 369 372 375 378 381 384 387 390 393 396 399 402 405 408 411 414 417 420 423 426 429 432 435 438 441 444 447 450 453 456 459 462 465 468 471 474 477 480 483 486 489 492 495 498 501 504 507 510 513 516 519 522 525 528 531 534 537 540 543 546 549 552 555 558 561 564 567 570 573 576 579 582 585 588 591 594 597 600 603 606 609 612 615 618 621 624 627 630 633 636 639 642 645 648 651 654 657 660 663 666 669 672 675 678 681 684 687 690 693 696 699 702 705 708 711 714 717 720 723 726 729 732 735 738 741 744 747 750 753 756 759 762 765 768 771 774 777 780 783 786 789 792 795 798 801 804 807 810 813 816 819 822 825 828 
				</DataArray>
			</Polys>
		</Piece>
	</PolyData>
</VTKFile>
