<?xml version="1.0"?>
<VTKFile type="PolyData" version="0.1" byte_order="LittleEndian" compressor="vtkZLibDataCompressor">
	<PolyData>
		<Piece NumberOfPoints="69" NumberOfVerts="0" NumberOfLines="0" NumberOfStrips="0" NumberOfPolys="134">
		<PointData Normals="Normals">
		<DataArray type="Float32" Name="Normals" NumberOfComponents="3" format="ascii">
			 0.658784 -0.616911  0.430610
			 0.413268 -0.850015  0.326625
			-0.135021 -0.736055 -0.663319
			 0.858499 -0.492978  0.141253
			 0.341172  0.937962  0.061887
			-0.005816 -0.460878 -0.887445
			 0.602360  0.133220  0.787029
			 0.539678 -0.132437  0.831389
			-0.085518 -0.993883 -0.069886
			-0.088268 -0.805325 -0.586226
			-0.416890  0.519973 -0.745541
			-0.566527 -0.109288 -0.816764
			 0.180356  0.628821 -0.756344
			 0.377561  0.849516  0.368469
			 0.405958 -0.892811  0.195160
			 0.716633  0.028642  0.696862
			-0.489578 -0.671943 -0.555703
			-0.359795  0.726507 -0.585436
			-0.668981  0.223411 -0.708909
			 0.287294  0.889780  0.354618
			 0.681916 -0.618577  0.390325
			 0.026654 -0.965507 -0.259009
			-0.604800 -0.524083 -0.599628
			 0.761761 -0.198037  0.616848
			-0.701930 -0.394682 -0.592891
			 0.676450  0.275825  0.682888
			-0.447906  0.841170 -0.303008
			-0.761912  0.451872 -0.464006
			-0.125584  0.968961  0.212939
			 0.766103 -0.363222  0.530242
			-0.767532 -0.121714 -0.629349
			 0.642793 -0.701737  0.307219
			-0.386990 -0.671724 -0.631684
			 0.449805  0.723150  0.524147
			-0.745002  0.530656 -0.404197
			-0.504593  0.832338 -0.229343
			 0.793351  0.074040  0.604245
			 0.759498 -0.131923  0.636993
			-0.722557  0.128568 -0.679250
			-0.816265  0.211247 -0.537667
			 0.821826 -0.566667  0.059086
			 0.113057 -0.964680  0.237929
			-0.404694 -0.911679 -0.071166
			 0.857860  0.022022  0.513412
			-0.748148 -0.256681 -0.611874
			-0.602353 -0.062223 -0.795801
			 0.559674  0.610348  0.560571
			-0.635397  0.505748 -0.583515
			 0.218355  0.929419  0.297493
			 0.768072 -0.084310  0.634789
			 0.767891 -0.240011 -0.593918
			 0.785218 -0.539507 -0.303915
			 0.421392 -0.735238  0.530899
			-0.090529 -0.725463  0.682281
			 0.974425 -0.218867 -0.050935
			-0.861960 -0.377438  0.338475
			-0.980201  0.090419 -0.176153
			 0.902414 -0.139684  0.407599
			-0.786244  0.335902 -0.518642
			-0.528449  0.838410 -0.133459
			 0.685242  0.662134  0.303352
			 0.165867  0.981647 -0.094109
			 0.310721  0.699927 -0.643082
			 0.908663  0.000506 -0.417530
			 0.502563  0.106285  0.857982
			-0.299388  0.434903  0.849250
			-0.716865  0.368280  0.592008
			-0.864098  0.482949  0.141756
			-0.693649  0.718840 -0.046043
		</DataArray>
	</PointData>
	<Points>
		<DataArray type="Float32" NumberOfComponents="3" format="ascii">
			-0.052286 -0.076307 -0.133455
			-0.058286 -0.079359 -0.129804
			-0.054462 -0.076775 -0.136109
			-0.046481 -0.073226 -0.137785
			-0.050058 -0.071843 -0.135133
			-0.051533 -0.075139 -0.138797
			-0.053623 -0.073907 -0.131406
			-0.056963 -0.075653 -0.129079
			-0.060737 -0.080279 -0.130349
			-0.059593 -0.079639 -0.131400
			-0.054518 -0.073517 -0.136119
			-0.059534 -0.076066 -0.133078
			-0.047255 -0.073372 -0.138855
			-0.055407 -0.071276 -0.131929
			-0.065330 -0.080029 -0.123245
			-0.059815 -0.073907 -0.126831
			-0.066431 -0.080060 -0.125866
			-0.057655 -0.072029 -0.132995
			-0.062254 -0.074200 -0.131247
			-0.060548 -0.070908 -0.126962
			-0.078499 -0.084736 -0.107233
			-0.079637 -0.085163 -0.107482
			-0.079409 -0.085006 -0.107873
			-0.071167 -0.080487 -0.114921
			-0.073696 -0.081085 -0.117662
			-0.064151 -0.073141 -0.122283
			-0.062294 -0.071449 -0.128066
			-0.066916 -0.073807 -0.125207
			-0.076788 -0.077132 -0.109362
			-0.086480 -0.086802 -0.094382
			-0.088893 -0.087446 -0.096537
			-0.091906 -0.089700 -0.090218
			-0.093022 -0.090010 -0.091149
			-0.077587 -0.077699 -0.107876
			-0.079029 -0.078140 -0.108820
			-0.090413 -0.082240 -0.092018
			-0.082007 -0.080836 -0.099662
			-0.089319 -0.085137 -0.091596
			-0.091089 -0.085568 -0.093431
			-0.084456 -0.081484 -0.101894
			-0.101901 -0.093450 -0.072044
			-0.105544 -0.095214 -0.070382
			-0.107627 -0.095523 -0.073781
			-0.097646 -0.090035 -0.082412
			-0.105741 -0.093488 -0.081619
			-0.100280 -0.090537 -0.086020
			-0.089281 -0.081915 -0.091143
			-0.096718 -0.085360 -0.088718
			-0.096344 -0.082917 -0.082566
			-0.092941 -0.084204 -0.086259
			-0.098059 -0.089157 -0.068525
			-0.096053 -0.088629 -0.066687
			-0.099048 -0.090298 -0.063960
			-0.105212 -0.092680 -0.064894
			-0.100539 -0.089468 -0.072936
			-0.107749 -0.093212 -0.068071
			-0.107631 -0.092000 -0.075305
			-0.099236 -0.087771 -0.080159
			-0.103975 -0.089242 -0.083120
			-0.099865 -0.084537 -0.081485
			-0.098334 -0.084622 -0.077048
			-0.098826 -0.085760 -0.071228
			-0.096142 -0.085117 -0.068366
			-0.092881 -0.084027 -0.066809
			-0.094875 -0.085462 -0.062979
			-0.100815 -0.088010 -0.062308
			-0.105981 -0.089785 -0.064472
			-0.107756 -0.089846 -0.068630
			-0.107201 -0.088737 -0.074107
		</DataArray>
	</Points>
			<Polys>
				<DataArray type="Int32" Name="connectivity" format="ascii">
					0 1 2 
					3 4 0 
					0 5 3 
					5 0 2 
					6 7 0 
					4 6 0 
					7 1 0 
					1 8 9 
					2 1 9 
					7 8 1 
					2 10 5 
					9 11 2 
					11 10 2 
					12 4 3 
					5 12 3 
					4 12 5 
					10 4 5 
					4 13 6 
					10 13 4 
					7 6 13 
					7 14 8 
					7 15 14 
					13 15 7 
					8 11 9 
					8 16 11 
					8 14 16 
					11 17 10 
					10 17 13 
					18 11 16 
					11 18 17 
					13 19 15 
					17 19 13 
					14 20 21 
					21 22 14 
					15 23 14 
					22 24 14 
					14 23 20 
					16 14 24 
					19 25 15 
					23 15 25 
					24 18 16 
					18 26 17 
					26 19 17 
					24 27 18 
					18 27 26 
					19 28 25 
					26 28 19 
					20 25 29 
					29 21 20 
					20 23 25 
					21 30 22 
					21 31 32 
					32 30 21 
					21 29 31 
					22 27 24 
					30 27 22 
					33 29 25 
					28 33 25 
					27 28 26 
					30 34 27 
					27 34 28 
					35 28 34 
					28 35 33 
					33 36 29 
					29 36 37 
					37 31 29 
					32 38 30 
					39 34 30 
					30 38 39 
					31 40 41 
					41 42 31 
					31 43 40 
					31 37 43 
					42 32 31 
					42 44 32 
					44 45 32 
					45 38 32 
					33 46 36 
					35 46 33 
					34 39 35 
					38 35 39 
					47 35 38 
					35 48 46 
					47 48 35 
					46 37 36 
					46 49 37 
					49 43 37 
					45 47 38 
					40 50 51 
					51 52 40 
					52 53 40 
					40 54 50 
					41 40 53 
					40 43 54 
					53 55 41 
					42 41 55 
					42 56 44 
					55 56 42 
					43 49 57 
					43 57 54 
					44 58 45 
					56 58 44 
					58 47 45 
					46 48 49 
					58 59 47 
					59 48 47 
					48 57 49 
					48 60 57 
					60 48 59 
					50 61 62 
					62 51 50 
					61 50 54 
					51 62 63 
					63 64 51 
					64 52 51 
					52 64 65 
					53 52 65 
					65 66 53 
					66 55 53 
					54 60 61 
					54 57 60 
					55 67 56 
					55 66 67 
					56 68 58 
					56 67 68 
					68 59 58 
					60 59 68 
					60 68 61 
					61 66 65 
					61 65 62 
					61 67 66 
					61 68 67 
					62 65 64 
					62 64 63 
				</DataArray>
				<DataArray type="Int32" Name="offsets" format="ascii">
					3 6 9 12 15 18 21 24 27 30 33 36 39 42 45 48 51 54 57 60 63 66 69 72 75 78 81 84 87 90 93 96 99 102 105 108 111 114 117 120 123 126 129 132 135 138 141 144 147 150 153 156 159 162 165 168 171 174 177 180 183 186 189 192 195 198 201 204 207 210 213 216 219 222 225 228 231 234 237 240 243 246 249 252 255 258 261 264 267 270 273 276 279 282 285 288 291 294 297 300 303 306 309 312 315 318 321 324 327 330 333 336 339 342 345 348 351 354 357 360 363 366 369 372 375 378 381 384 387 390 393 396 399 402 
				</DataArray>
			</Polys>
		</Piece>
	</PolyData>
</VTKFile>
