<?xml version="1.0"?>
<VTKFile type="PolyData" version="0.1" byte_order="LittleEndian" compressor="vtkZLibDataCompressor">
	<PolyData>
		<Piece NumberOfPoints="405" NumberOfVerts="0" NumberOfLines="0" NumberOfStrips="0" NumberOfPolys="806">
		<PointData Normals="Normals">
		<DataArray type="Float32" Name="Normals" NumberOfComponents="3" format="ascii">
			-0.671204 -0.235467  0.702880
			-0.488499 -0.842609 -0.226670
			-0.006907 -0.956282  0.292366
			-0.070487 -0.739384  0.669584
			-0.850492 -0.298004  0.433424
			-0.324825 -0.465248  0.823428
			-0.886098  0.135652  0.443203
			-0.641288 -0.141511  0.754138
			 0.554828 -0.429604 -0.712465
			-0.487075 -0.544564 -0.682794
			 0.548177 -0.012417 -0.836270
			 0.582452 -0.497491 -0.642848
			 0.675345 -0.724464 -0.138062
			 0.870319 -0.463168  0.167393
			-0.348070 -0.620963  0.702319
			-0.500990  0.147578 -0.852778
			-0.355469  0.619854 -0.699587
			-0.871666  0.252770  0.419888
			-0.759507 -0.191353  0.621718
			 0.598890 -0.231310 -0.766698
			 0.561322 -0.054417 -0.825807
			 0.621820 -0.076718 -0.779393
			 0.726179 -0.032567 -0.686734
			 0.783877  0.096089 -0.613437
			 0.907658  0.008893 -0.419617
			 0.658727 -0.679327  0.323409
			-0.393386 -0.542746  0.742074
			 0.583515  0.299980 -0.754667
			-0.401778  0.825766 -0.395834
			-0.899886  0.041891  0.434110
			-0.789556 -0.180465  0.586544
			 0.720765  0.280446 -0.633915
			 0.949117  0.001950 -0.314918
			 0.672208 -0.571978  0.470083
			-0.409581 -0.550796  0.727233
			 0.487360  0.510301 -0.708571
			-0.534694  0.773065 -0.341282
			-0.888294 -0.050882  0.456448
			-0.927116  0.284354  0.244126
			 0.645662  0.480740 -0.593304
			 0.832183  0.322182 -0.451299
			 0.242691 -0.809499  0.534614
			 0.915537 -0.370378 -0.156880
			-0.390128 -0.656093  0.646020
			 0.454825  0.617069 -0.642152
			-0.454780  0.862405 -0.222336
			-0.880624  0.094822  0.464231
			 0.586274  0.560190 -0.585210
			 0.756498  0.247025 -0.605549
			 0.328708 -0.825048  0.459616
			 0.836801 -0.518511 -0.175813
			-0.390910 -0.603429  0.695027
			 0.406080  0.629511 -0.662431
			-0.784522  0.618724  0.041292
			 0.755294  0.086855 -0.649606
			 0.068715 -0.704571  0.706299
			 0.770616 -0.633427 -0.070161
			 0.776569 -0.014094 -0.629875
			-0.455276 -0.470902  0.755629
			-0.832627 -0.079131  0.548153
			 0.228547  0.750441 -0.620165
			-0.648068  0.624774 -0.435506
			 0.625090  0.109614 -0.772818
			-0.089606 -0.688267  0.719902
			 0.779962 -0.625598  0.016929
			 0.688851 -0.056215 -0.722720
			-0.561934 -0.285164  0.776474
			-0.910254 -0.176946  0.374337
			 0.113988  0.452938 -0.884225
			-0.827926  0.560795  0.006933
			 0.592980  0.194146 -0.781461
			-0.041970 -0.578226  0.814797
			 0.750139 -0.026600 -0.660745
			 0.810179 -0.536682  0.235758
			-0.540898 -0.207017  0.815214
			-0.793404  0.006476  0.608661
			 0.036220  0.573689 -0.818272
			-0.807750  0.536355 -0.244670
			 0.537312  0.259865 -0.802350
			 0.025964 -0.493985  0.869083
			 0.867628 -0.045887 -0.495092
			 0.842615 -0.409565  0.349653
			-0.592298 -0.094758  0.800127
			-0.866903  0.176944  0.466014
			-0.008706  0.347159 -0.937766
			-0.874100  0.332691 -0.353930
			 0.587702  0.040110 -0.808082
			 0.058194 -0.375516  0.924987
			 0.914214 -0.019814 -0.404747
			 0.934414 -0.250216  0.253500
			-0.632295 -0.083717  0.770191
			-0.885894  0.170985  0.431225
			 0.139509 -0.050854 -0.988914
			-0.929927  0.121071  0.347242
			-0.908581  0.136913 -0.394633
			 0.801016  0.033557 -0.597702
			 0.072818 -0.245717  0.966603
			 0.960693 -0.081372  0.265420
			-0.660249 -0.084372  0.746293
			 0.815496 -0.102881 -0.569545
			-0.432468 -0.327155 -0.840203
			-0.999357  0.015666 -0.032250
			-0.778252 -0.085571  0.622094
			 0.989441  0.089600 -0.113926
			 0.191560 -0.209947  0.958763
			 0.311519 -0.174249 -0.934127
			 0.945912  0.040666 -0.321864
			-0.882328 -0.138412 -0.449821
			-0.991960 -0.021727  0.124670
			-0.138424 -0.362433  0.921673
			-0.718803 -0.274142  0.638881
			 0.858963 -0.104063  0.501351
			-0.871004  0.033324 -0.490144
			 0.375879  0.149899 -0.914464
			 0.908907  0.126783 -0.397259
			 0.985466  0.033375  0.166561
			-0.925816 -0.156001  0.344280
			-0.981470  0.068486 -0.178959
			 0.339288 -0.274449  0.899756
			-0.230841 -0.348130  0.908580
			-0.016923  0.316353 -0.948491
			 0.858632  0.184403 -0.478274
			 0.976383  0.089155 -0.196792
			 0.816850 -0.016927  0.576602
			-0.997581 -0.047741  0.050535
			-0.719301 -0.381599  0.580507
			-0.654393  0.165333 -0.737858
			 0.346202 -0.211684  0.913966
			 0.810088  0.165242 -0.562542
			 0.922516  0.152944 -0.354361
			 0.956169  0.127763  0.263472
			-0.978645 -0.182995 -0.093633
			-0.521388 -0.571081  0.634051
			 0.093786  0.177875 -0.979574
			 0.874825  0.181228  0.449264
			 0.440778 -0.241540  0.864508
			 0.784227  0.242052 -0.571314
			 0.931115  0.336454 -0.140798
			-0.496431  0.073289 -0.864977
			-0.951101 -0.297662 -0.082494
			 0.268121 -0.327102  0.906154
			-0.652961 -0.613774  0.443760
			 0.605954  0.320758 -0.727965
			 0.825934  0.181613  0.533714
			 0.924288  0.361642 -0.122097
			-0.754933 -0.136060 -0.641532
			 0.363024  0.334156 -0.869801
			-0.907154 -0.417421 -0.053200
			 0.713624  0.180291  0.676931
			 0.026570 -0.347188  0.937419
			-0.730237 -0.637329  0.246102
			 0.865325  0.321061 -0.384880
			 0.909126  0.381044  0.168213
			-0.323094  0.227159 -0.918700
			-0.937755 -0.318589 -0.138265
			 0.618085  0.400090 -0.676682
			-0.841445 -0.512507 -0.171194
			 0.502525  0.225847  0.834543
			 0.829121  0.392024  0.398593
			-0.168417 -0.327033  0.929885
			-0.619388 -0.769365  0.156321
			 0.919037  0.362922 -0.153813
			-0.789082 -0.147681 -0.596272
			 0.292253  0.484149 -0.824735
			 0.839921  0.418640 -0.345361
			-0.632649 -0.764622  0.122915
			 0.522574  0.345054  0.779650
			 0.888500  0.350183  0.296545
			-0.020810 -0.289996  0.956801
			-0.416170 -0.104938 -0.903211
			 0.508280  0.525688 -0.682132
			 0.911849  0.376458 -0.163740
			-0.005064 -0.150016  0.988671
			-0.533366 -0.792355  0.296134
			 0.546796  0.321914  0.772907
			 0.876066  0.305134  0.373364
			-0.615518 -0.655056 -0.438224
			-0.433088  0.000362 -0.901351
			 0.326993  0.508664 -0.796452
			 0.768660  0.481397 -0.421211
			 0.830221  0.380394  0.407472
			 0.430508  0.283612  0.856871
			-0.065707 -0.172929  0.982740
			-0.472367 -0.786034  0.398774
			-0.678944 -0.379942 -0.628235
			-0.651345 -0.757502 -0.044048
			-0.028117  0.341975 -0.939288
			 0.479344  0.509554 -0.714552
			 0.879771  0.471764 -0.058672
			 0.661808  0.305889  0.684429
			 0.275030  0.179740  0.944485
			-0.168054 -0.321107  0.932013
			-0.520092 -0.637613 -0.568291
			-0.575328 -0.594039 -0.562241
			-0.249073  0.100013 -0.963307
			-0.327961 -0.466133  0.821682
			-0.541329 -0.815838 -0.203402
			 0.244113  0.588874 -0.770478
			 0.613015  0.580284 -0.536175
			 0.843198  0.408346  0.349671
			 0.533773  0.220843  0.816281
			 0.152401  0.006326  0.988298
			-0.406306 -0.665904 -0.625689
			-0.378159 -0.153928 -0.912853
			 0.231975  0.557317 -0.797236
			 0.044551 -0.095603  0.994422
			-0.455711 -0.557187  0.694169
			-0.544008 -0.815555 -0.197297
			 0.727922  0.569890 -0.381256
			 0.646991  0.465935  0.603579
			 0.401157  0.159484  0.902019
			-0.159201 -0.046500 -0.986151
			-0.473293 -0.773388 -0.421741
			 0.322028  0.318212 -0.891650
			 0.347919  0.141921  0.926720
			 0.045990 -0.194207  0.979882
			-0.338089 -0.728048  0.596357
			 0.780806  0.621624 -0.062654
			 0.580280  0.426412  0.693865
			-0.242929 -0.136049 -0.960456
			 0.184382  0.243549 -0.952201
			-0.488342 -0.802042  0.343875
			-0.637732 -0.679799 -0.362175
			-0.455992 -0.481042 -0.748779
			 0.698073  0.527461 -0.484230
			 0.679338  0.440285  0.587069
			 0.423992  0.112869  0.898605
			 0.169772 -0.344582  0.923277
			-0.059478 -0.581107  0.811651
			 0.079963  0.070657 -0.994290
			-0.256738 -0.145321 -0.955493
			 0.672656  0.321295 -0.666561
			-0.026066 -0.510042  0.859754
			-0.513947 -0.745501  0.424367
			-0.712473 -0.640120 -0.287452
			-0.542123 -0.413089 -0.731752
			 0.809785  0.549446  0.205811
			 0.593767  0.358198  0.720510
			 0.370327 -0.095883  0.923940
			-0.028321 -0.082335 -0.996202
			 0.342406 -0.021461 -0.939307
			-0.413554 -0.242397 -0.877620
			 0.815503  0.474114  0.331921
			 0.888608  0.394930 -0.233251
			 0.445399 -0.093358  0.890451
			 0.046043 -0.480859  0.875588
			-0.431079 -0.737658  0.519645
			-0.706775 -0.692335 -0.145399
			-0.628414 -0.452870 -0.632459
			 0.630687  0.249429  0.734861
			-0.308392 -0.078515 -0.948014
			 0.037492  0.024640 -0.998993
			 0.720730  0.371401 -0.585328
			-0.636489 -0.253198 -0.728542
			 0.775973  0.477516  0.412123
			 0.509249 -0.160259  0.845566
			 0.675763  0.195167  0.710812
			 0.069905 -0.504574  0.860534
			-0.442368 -0.695871  0.565751
			-0.740835 -0.670188  0.044854
			-0.756666 -0.466580 -0.457995
			-0.502164 -0.102122 -0.858721
			-0.165257  0.075473 -0.983359
			 0.630790  0.556388 -0.540867
			-0.826893 -0.331170 -0.454504
			 0.792599  0.440277  0.421832
			 0.759201  0.043014  0.649434
			 0.471829 -0.345832  0.811035
			-0.097287 -0.541899  0.834794
			-0.553582 -0.622735  0.552945
			-0.816337 -0.563558  0.126476
			-0.644197 -0.108966 -0.757058
			-0.305422  0.079728 -0.948873
			 0.177975  0.379422 -0.907945
			 0.783118  0.610624 -0.117746
			-0.915156 -0.301133 -0.267971
			 0.886365  0.283525  0.366019
			 0.812613 -0.205100  0.545522
			 0.478557 -0.457971  0.749164
			 0.024869 -0.548938  0.835493
			-0.489023 -0.542304  0.683201
			-0.848430 -0.455258  0.270014
			-0.792148 -0.140323 -0.593979
			-0.463568  0.092020 -0.881270
			-0.053519  0.212724 -0.975646
			 0.516235  0.529849 -0.672875
			 0.873526  0.486696 -0.008960
			-0.954731 -0.277771 -0.106449
			 0.925293 -0.018138  0.378819
			 0.556854 -0.382563  0.737265
			-0.013215 -0.513907  0.857744
			-0.432371 -0.494950  0.753711
			-0.841240 -0.392955  0.371352
			-0.929029 -0.234306 -0.286366
			-0.696842 -0.115352 -0.707888
			-0.119675  0.159585 -0.979903
			 0.556724  0.413503 -0.720468
			 0.970083  0.181827  0.160866
			 0.893340  0.448564 -0.027085
			-0.967865 -0.200283  0.152069
			 0.978559 -0.103748  0.177927
			 0.799155 -0.265924  0.539107
			 0.336253 -0.405937  0.849793
			-0.109057 -0.463641  0.879286
			-0.685102 -0.381753  0.620402
			-0.968661 -0.219160 -0.116895
			-0.265531 -0.017858 -0.963937
			-0.703534 -0.182527 -0.686822
			 0.357454  0.347425 -0.866904
			 0.889898  0.385070 -0.244546
			 0.988737 -0.059042  0.137527
			-0.939948 -0.169001  0.296542
			 0.841429 -0.188249  0.506517
			 0.450727 -0.319972  0.833344
			-0.079646 -0.379140  0.921906
			-0.637796 -0.333490  0.694263
			-0.978439 -0.111609  0.173785
			-0.933259 -0.132627 -0.333822
			-0.457163 -0.148294 -0.876933
			 0.124752  0.189403 -0.973942
			 0.630680  0.488238 -0.603213
			 0.846633  0.460207 -0.267251
			 0.983768  0.175132 -0.039117
			 0.960006 -0.053467  0.274826
			-0.874755 -0.152298  0.460010
			 0.735438 -0.191721  0.649903
			 0.192902 -0.276827  0.941358
			-0.462064 -0.300044  0.834548
			-0.911640 -0.138708  0.386875
			-0.984613 -0.145919  0.096154
			-0.820646 -0.197309 -0.536292
			-0.475520 -0.175760 -0.861968
			-0.057920  0.176466 -0.982601
			 0.601771  0.489210 -0.631305
			 0.906594  0.349432 -0.236611
			 0.993598 -0.002346  0.112951
			 0.524104 -0.237534  0.817858
			-0.139687 -0.255666  0.956620
			-0.616488 -0.223156  0.755079
			-0.734425 -0.195837  0.649822
			-0.933090 -0.276276  0.230247
			-0.948440 -0.233171 -0.214694
			-0.638680 -0.183996 -0.747150
			-0.224063  0.115323 -0.967727
			 0.324522  0.478066 -0.816173
			 0.652421  0.517084 -0.554050
			 0.969151  0.107583 -0.221747
			 0.895478  0.319209 -0.310202
			 0.931159  0.032861 -0.363129
			 0.986387 -0.029196  0.161828
			 0.584881 -0.201997  0.785565
			-0.108050 -0.297985  0.948436
			-0.835408 -0.251273  0.488830
			-0.525788 -0.176284  0.832148
			-0.898577 -0.358441  0.253140
			-0.908070 -0.401831 -0.118073
			-0.730100 -0.261696 -0.631245
			-0.298821  0.020276 -0.954094
			 0.315032  0.434525 -0.843767
			 0.686060  0.448055 -0.573209
			 0.910799  0.241959 -0.334515
			 0.952105  0.051395 -0.301422
			 0.997737  0.060036 -0.030284
			 0.736631 -0.111092  0.667108
			 0.343093 -0.241232  0.907797
			 0.081114 -0.200549  0.976320
			-0.731448 -0.198718  0.652300
			-0.857604 -0.340871  0.385126
			-0.405568 -0.147615  0.902067
			-0.887425 -0.459668  0.034395
			-0.780685 -0.408877 -0.472600
			-0.426179 -0.112868 -0.897571
			 0.152822  0.315907 -0.936402
			 0.605711  0.439258 -0.663451
			 0.872983  0.246878 -0.420656
			 0.986731  0.090514 -0.134794
			 0.922438  0.055561  0.382128
			 0.540019 -0.142476  0.829506
			 0.136712 -0.230517  0.963417
			-0.670882 -0.182658  0.718716
			-0.797247 -0.365243  0.480620
			-0.866441 -0.475954  0.150825
			-0.334224 -0.112231  0.935787
			-0.846318 -0.431744 -0.311998
			-0.539750 -0.267129 -0.798318
			 0.008387  0.117585 -0.993027
			 0.451308  0.418939 -0.787916
			 0.650981  0.467326 -0.598189
			 0.902467  0.288306 -0.320051
			 0.974895  0.162096  0.152661
			 0.752452  0.057846  0.656102
			 0.244509 -0.016221  0.969511
			-0.618595  0.519381  0.589562
			-0.803438  0.265953  0.532688
			-0.881075  0.350685  0.317375
			-0.982267  0.187060 -0.012605
			-0.360779  0.622573  0.694436
			-0.867826  0.277548 -0.412122
			-0.366295  0.251233 -0.895941
			-0.106762  0.904652 -0.412561
			 0.193394  0.922190 -0.334910
			 0.181965  0.980153 -0.078673
			 0.453087  0.883128  0.121643
			 0.716936  0.448926  0.533355
			 0.111297  0.583706  0.804301
		</DataArray>
	</PointData>
	<Points>
		<DataArray type="Float32" NumberOfComponents="3" format="ascii">
			-0.056451 -0.120644 -0.113067
			-0.056802 -0.123521 -0.116466
			-0.054012 -0.123160 -0.111580
			-0.050452 -0.121911 -0.110252
			-0.056971 -0.120689 -0.114119
			-0.048932 -0.118383 -0.107917
			-0.057337 -0.117659 -0.113502
			-0.053431 -0.116601 -0.110105
			-0.052806 -0.122257 -0.114117
			-0.058523 -0.120822 -0.117253
			-0.055761 -0.120092 -0.114743
			-0.049860 -0.121326 -0.112384
			-0.045877 -0.120306 -0.108543
			-0.044174 -0.116761 -0.105843
			-0.047010 -0.114861 -0.104518
			-0.058331 -0.117310 -0.118212
			-0.055258 -0.112938 -0.117157
			-0.055089 -0.113575 -0.112768
			-0.049807 -0.112589 -0.105402
			-0.055797 -0.116511 -0.116709
			-0.047827 -0.117506 -0.110548
			-0.050747 -0.114917 -0.113715
			-0.045971 -0.116901 -0.109566
			-0.045933 -0.113696 -0.109009
			-0.044489 -0.113650 -0.105604
			-0.043140 -0.113607 -0.102426
			-0.046121 -0.111901 -0.100261
			-0.053136 -0.112392 -0.115136
			-0.053507 -0.109608 -0.113001
			-0.051082 -0.109610 -0.106791
			-0.048744 -0.109178 -0.103505
			-0.046044 -0.110565 -0.108373
			-0.041474 -0.109854 -0.101116
			-0.041745 -0.110201 -0.099644
			-0.044776 -0.108444 -0.097930
			-0.049261 -0.108494 -0.109079
			-0.051126 -0.106059 -0.108597
			-0.049826 -0.106378 -0.103290
			-0.050739 -0.106154 -0.107014
			-0.045757 -0.107576 -0.105841
			-0.041887 -0.106920 -0.100022
			-0.041178 -0.107192 -0.096525
			-0.039947 -0.106592 -0.097104
			-0.042423 -0.104990 -0.093003
			-0.049245 -0.105488 -0.107340
			-0.047206 -0.102318 -0.101451
			-0.046978 -0.102895 -0.097274
			-0.047595 -0.105159 -0.105171
			-0.039934 -0.103629 -0.095104
			-0.038022 -0.103517 -0.090917
			-0.037041 -0.103052 -0.091302
			-0.039049 -0.101203 -0.087540
			-0.043653 -0.101207 -0.099282
			-0.044009 -0.098929 -0.093968
			-0.036205 -0.099617 -0.090133
			-0.032588 -0.099147 -0.083813
			-0.031123 -0.098532 -0.083892
			-0.031710 -0.098658 -0.084613
			-0.035804 -0.097252 -0.083421
			-0.042857 -0.098926 -0.091039
			-0.040452 -0.097505 -0.093730
			-0.039245 -0.094703 -0.087678
			-0.033113 -0.095631 -0.086633
			-0.029273 -0.095247 -0.079205
			-0.024992 -0.093557 -0.078778
			-0.027554 -0.094211 -0.081256
			-0.033064 -0.093399 -0.079994
			-0.040021 -0.095221 -0.086436
			-0.035555 -0.093189 -0.087668
			-0.036695 -0.091071 -0.083355
			-0.030571 -0.091791 -0.083624
			-0.026591 -0.091399 -0.075892
			-0.024130 -0.089984 -0.078396
			-0.023429 -0.089992 -0.076562
			-0.030261 -0.089430 -0.077119
			-0.034868 -0.090754 -0.080658
			-0.032870 -0.089338 -0.084363
			-0.033643 -0.086873 -0.081271
			-0.027999 -0.087936 -0.080627
			-0.024478 -0.087710 -0.073038
			-0.021855 -0.086170 -0.075914
			-0.022185 -0.086560 -0.074331
			-0.029152 -0.085939 -0.075606
			-0.033425 -0.087102 -0.079288
			-0.031526 -0.085881 -0.082033
			-0.031741 -0.082950 -0.080419
			-0.027184 -0.084586 -0.078989
			-0.023105 -0.084088 -0.071664
			-0.021494 -0.082889 -0.074999
			-0.021178 -0.083112 -0.072804
			-0.026858 -0.082071 -0.073405
			-0.032117 -0.083413 -0.078493
			-0.029516 -0.081764 -0.082107
			-0.031338 -0.079845 -0.078306
			-0.031249 -0.079613 -0.079517
			-0.021738 -0.079702 -0.075051
			-0.022832 -0.080889 -0.070463
			-0.020420 -0.079548 -0.072647
			-0.026809 -0.078837 -0.072997
			-0.026401 -0.077681 -0.079147
			-0.028519 -0.077848 -0.083525
			-0.030819 -0.076134 -0.079666
			-0.026928 -0.075623 -0.072900
			-0.020731 -0.076448 -0.072321
			-0.022859 -0.077721 -0.069848
			-0.028001 -0.074139 -0.084875
			-0.021436 -0.073342 -0.073050
			-0.030182 -0.075434 -0.082389
			-0.030808 -0.072796 -0.080002
			-0.023210 -0.074741 -0.068879
			-0.025436 -0.072304 -0.069332
			-0.021353 -0.073784 -0.070088
			-0.030145 -0.072099 -0.082643
			-0.028050 -0.070860 -0.084997
			-0.022313 -0.070303 -0.073799
			-0.021267 -0.070515 -0.069811
			-0.030012 -0.069723 -0.076684
			-0.030474 -0.069308 -0.080444
			-0.023309 -0.071672 -0.067828
			-0.024189 -0.068921 -0.066791
			-0.028546 -0.067893 -0.084320
			-0.025750 -0.067585 -0.079088
			-0.021909 -0.067163 -0.071903
			-0.022082 -0.067853 -0.068050
			-0.030497 -0.066369 -0.078388
			-0.026382 -0.066560 -0.066686
			-0.029112 -0.064991 -0.083422
			-0.024744 -0.065990 -0.066043
			-0.027314 -0.064723 -0.080493
			-0.022169 -0.063956 -0.072113
			-0.021912 -0.064369 -0.068892
			-0.031029 -0.063297 -0.078465
			-0.027426 -0.063944 -0.065236
			-0.029462 -0.062012 -0.082455
			-0.022898 -0.061660 -0.067864
			-0.025938 -0.063414 -0.064723
			-0.027595 -0.061494 -0.080904
			-0.022763 -0.061111 -0.070938
			-0.030273 -0.059209 -0.081566
			-0.031525 -0.060330 -0.077788
			-0.027430 -0.060979 -0.063286
			-0.029517 -0.061657 -0.064404
			-0.029151 -0.058804 -0.081218
			-0.024466 -0.059290 -0.066220
			-0.023800 -0.058379 -0.070185
			-0.031421 -0.056496 -0.080978
			-0.030508 -0.056149 -0.080801
			-0.032167 -0.057692 -0.075448
			-0.027053 -0.057506 -0.063527
			-0.029272 -0.058653 -0.062073
			-0.031624 -0.059239 -0.064432
			-0.026047 -0.055364 -0.074285
			-0.024941 -0.055887 -0.068208
			-0.032670 -0.053872 -0.080099
			-0.033669 -0.054999 -0.075641
			-0.029947 -0.052904 -0.079154
			-0.032970 -0.055970 -0.067814
			-0.029422 -0.055445 -0.062008
			-0.026437 -0.053410 -0.067040
			-0.031711 -0.056483 -0.061401
			-0.033948 -0.056876 -0.064673
			-0.026568 -0.052593 -0.072455
			-0.033833 -0.051293 -0.078715
			-0.031490 -0.050395 -0.078313
			-0.027563 -0.049671 -0.072776
			-0.036602 -0.054978 -0.062869
			-0.030388 -0.052437 -0.062790
			-0.027491 -0.050472 -0.067610
			-0.034100 -0.054305 -0.060660
			-0.035287 -0.048740 -0.077912
			-0.032042 -0.047603 -0.076690
			-0.028362 -0.046988 -0.071112
			-0.036429 -0.052010 -0.060493
			-0.039429 -0.052983 -0.062106
			-0.032053 -0.049803 -0.063032
			-0.028339 -0.047496 -0.067897
			-0.039629 -0.048247 -0.071680
			-0.037435 -0.046471 -0.077121
			-0.033934 -0.045269 -0.075650
			-0.029553 -0.044221 -0.070973
			-0.029377 -0.044633 -0.067957
			-0.034665 -0.047726 -0.062231
			-0.039201 -0.049863 -0.060532
			-0.042853 -0.051044 -0.062522
			-0.040137 -0.044689 -0.074718
			-0.045920 -0.049019 -0.062558
			-0.038281 -0.043715 -0.076031
			-0.033854 -0.042267 -0.073720
			-0.030473 -0.041584 -0.069333
			-0.031751 -0.042554 -0.066561
			-0.039196 -0.046543 -0.060777
			-0.043212 -0.048221 -0.060601
			-0.045731 -0.045065 -0.066271
			-0.043196 -0.043050 -0.072336
			-0.041079 -0.041708 -0.075267
			-0.047223 -0.046552 -0.060846
			-0.048600 -0.046742 -0.063179
			-0.037195 -0.040377 -0.073621
			-0.032306 -0.038951 -0.069998
			-0.031916 -0.039123 -0.067931
			-0.034498 -0.040708 -0.064669
			-0.043467 -0.045073 -0.060441
			-0.048807 -0.042931 -0.067020
			-0.044411 -0.039924 -0.074487
			-0.039034 -0.038074 -0.072243
			-0.046029 -0.042924 -0.059959
			-0.050382 -0.044526 -0.061121
			-0.051508 -0.044429 -0.064605
			-0.033410 -0.036372 -0.068468
			-0.033941 -0.036879 -0.066663
			-0.040500 -0.040412 -0.061452
			-0.047097 -0.037919 -0.073424
			-0.054515 -0.042343 -0.064865
			-0.038473 -0.034853 -0.070452
			-0.043819 -0.038655 -0.060472
			-0.048352 -0.040628 -0.059778
			-0.053272 -0.042399 -0.061338
			-0.035519 -0.033890 -0.068887
			-0.036635 -0.034850 -0.065777
			-0.052573 -0.033753 -0.072541
			-0.045884 -0.031136 -0.071731
			-0.060164 -0.038840 -0.060305
			-0.061011 -0.038652 -0.063633
			-0.057664 -0.036531 -0.068274
			-0.039387 -0.028969 -0.068596
			-0.039816 -0.029594 -0.065807
			-0.047174 -0.033622 -0.059557
			-0.052849 -0.036324 -0.057256
			-0.057359 -0.038053 -0.058025
			-0.051770 -0.027113 -0.071000
			-0.057450 -0.029414 -0.071198
			-0.043494 -0.023976 -0.069361
			-0.060807 -0.033415 -0.054894
			-0.064708 -0.034598 -0.057511
			-0.065152 -0.033920 -0.062858
			-0.061496 -0.031499 -0.068576
			-0.042991 -0.024064 -0.067528
			-0.044986 -0.025466 -0.063904
			-0.057127 -0.031837 -0.055309
			-0.055164 -0.021835 -0.071716
			-0.046383 -0.018322 -0.071120
			-0.063016 -0.025319 -0.070102
			-0.045981 -0.018721 -0.067608
			-0.045821 -0.018169 -0.070632
			-0.059609 -0.026604 -0.053400
			-0.064207 -0.028622 -0.052608
			-0.068412 -0.030003 -0.054764
			-0.070071 -0.029847 -0.059978
			-0.067788 -0.028078 -0.065139
			-0.050938 -0.021920 -0.060382
			-0.065135 -0.019553 -0.070597
			-0.051664 -0.013718 -0.072467
			-0.048693 -0.012619 -0.071708
			-0.069171 -0.021752 -0.067231
			-0.049542 -0.013728 -0.066977
			-0.064076 -0.022340 -0.050557
			-0.056362 -0.018113 -0.057135
			-0.068385 -0.024291 -0.049431
			-0.071866 -0.025428 -0.051255
			-0.074476 -0.025650 -0.056548
			-0.074088 -0.024764 -0.061069
			-0.069804 -0.015259 -0.068447
			-0.056783 -0.009413 -0.071533
			-0.052350 -0.007583 -0.071584
			-0.077559 -0.020148 -0.057855
			-0.053211 -0.008967 -0.065173
			-0.061365 -0.014384 -0.052324
			-0.067084 -0.017515 -0.047458
			-0.072739 -0.019885 -0.047174
			-0.075921 -0.020856 -0.049266
			-0.078110 -0.021042 -0.053701
			-0.073939 -0.010699 -0.066590
			-0.068121 -0.007923 -0.068983
			-0.056817 -0.002947 -0.071044
			-0.056326 -0.002882 -0.070193
			-0.080357 -0.015203 -0.054975
			-0.056911 -0.004277 -0.063010
			-0.064902 -0.010209 -0.046533
			-0.067851 -0.011890 -0.043615
			-0.073085 -0.014052 -0.043543
			-0.077441 -0.015538 -0.045436
			-0.079612 -0.015844 -0.049085
			-0.078031 -0.006378 -0.063125
			-0.074385 -0.004464 -0.065721
			-0.061312  0.001525 -0.069559
			-0.060413  0.001853 -0.069295
			-0.058937  0.002010 -0.066503
			-0.082376 -0.009848 -0.052647
			-0.064725 -0.003967 -0.044116
			-0.068363 -0.006138 -0.039912
			-0.072982 -0.008129 -0.039334
			-0.077985 -0.009777 -0.041869
			-0.081537 -0.010460 -0.046701
			-0.083477 -0.003546 -0.053873
			-0.080379 -0.001095 -0.061197
			-0.064876  0.006516 -0.068918
			-0.062995  0.007177 -0.068226
			-0.064147  0.004838 -0.056618
			-0.061516  0.007310 -0.065268
			-0.083483 -0.004526 -0.047789
			-0.063546  0.003199 -0.044891
			-0.066886  0.000760 -0.038254
			-0.070075 -0.000880 -0.036205
			-0.074996 -0.002863 -0.036449
			-0.080711 -0.004549 -0.040566
			-0.084901  0.002598 -0.054931
			-0.068833  0.011253 -0.067704
			-0.083766  0.003711 -0.058959
			-0.066078  0.012325 -0.067334
			-0.064284  0.012730 -0.065266
			-0.063684  0.009221 -0.041902
			-0.082747  0.001438 -0.042213
			-0.065828  0.007397 -0.036041
			-0.069096  0.005663 -0.033601
			-0.075392  0.003142 -0.034019
			-0.080213  0.001601 -0.036754
			-0.084779  0.007873 -0.046643
			-0.085630  0.009275 -0.057540
			-0.074391  0.015293 -0.066245
			-0.071192  0.016828 -0.067621
			-0.068024  0.017780 -0.065441
			-0.066930  0.017810 -0.062833
			-0.063882  0.016123 -0.044549
			-0.064214  0.015014 -0.038495
			-0.081959  0.007464 -0.036895
			-0.067300  0.012870 -0.033057
			-0.071346  0.010929 -0.031319
			-0.078313  0.008258 -0.032511
			-0.082600  0.013757 -0.036880
			-0.086222  0.014806 -0.052665
			-0.086297  0.015672 -0.058243
			-0.077883  0.020296 -0.065506
			-0.074873  0.021764 -0.066942
			-0.071175  0.022916 -0.064656
			-0.066946  0.023290 -0.056170
			-0.064443  0.020961 -0.035283
			-0.066900  0.019266 -0.031019
			-0.076763  0.015039 -0.029941
			-0.079405  0.014119 -0.030968
			-0.080544  0.020185 -0.030820
			-0.085936  0.020141 -0.044326
			-0.087582  0.021486 -0.056895
			-0.085017  0.023316 -0.061726
			-0.080021  0.025909 -0.065083
			-0.075217  0.027702 -0.063957
			-0.073033  0.028237 -0.061703
			-0.067075  0.027228 -0.040205
			-0.067755  0.028885 -0.052250
			-0.065076  0.027489 -0.036714
			-0.064332  0.027297 -0.033619
			-0.066859  0.025561 -0.029279
			-0.076949  0.021168 -0.027740
			-0.083588  0.025852 -0.033049
			-0.078128  0.027091 -0.026807
			-0.088163  0.025795 -0.044399
			-0.089837  0.026680 -0.054172
			-0.087408  0.028803 -0.061171
			-0.084052  0.030574 -0.063609
			-0.079748  0.032276 -0.063194
			-0.073186  0.033963 -0.056921
			-0.068511  0.034626 -0.049091
			-0.067150  0.033790 -0.040421
			-0.064664  0.033735 -0.033725
			-0.066493  0.032047 -0.027901
			-0.070062  0.030516 -0.027497
			-0.074509  0.028411 -0.025763
			-0.082410  0.032299 -0.029353
			-0.088360  0.031564 -0.039993
			-0.077853  0.033619 -0.025914
			-0.092495  0.031759 -0.051765
			-0.091701  0.033070 -0.057894
			-0.088450  0.035073 -0.062046
			-0.084471  0.036783 -0.062514
			-0.074877  0.039494 -0.054851
			-0.069471  0.040577 -0.047777
			-0.065360  0.040235 -0.035139
			-0.066115  0.038883 -0.028657
			-0.068708  0.037327 -0.025605
			-0.072688  0.035495 -0.024387
			-0.083519  0.038362 -0.029101
			-0.090174  0.037110 -0.038329
			-0.095268  0.036872 -0.049863
			-0.076457  0.040407 -0.023783
			-0.095288  0.037952 -0.056635
			-0.092788  0.039655 -0.060840
			-0.089775  0.041034 -0.061720
			-0.084802  0.042715 -0.059463
			-0.073645  0.045642 -0.049152
			-0.067025  0.046577 -0.038056
			-0.066194  0.045840 -0.031341
			-0.068053  0.044218 -0.026011
			-0.071721  0.042288 -0.023371
			-0.083761  0.044638 -0.027971
			-0.092696  0.042655 -0.038471
			-0.097591  0.042026 -0.047073
			-0.098075  0.042737 -0.052733
			-0.076684  0.046916 -0.024055
			-0.096425  0.044527 -0.059651
			-0.094403  0.045626 -0.061313
			-0.090145  0.047277 -0.060700
			-0.075568  0.051096 -0.047199
			-0.068358  0.052440 -0.037137
			-0.067546  0.051882 -0.031592
			-0.068633  0.050565 -0.026179
			-0.070835  0.049387 -0.024472
		</DataArray>
	</Points>
			<Polys>
				<DataArray type="Int32" Name="connectivity" format="ascii">
					0 1 2 
					3 0 2 
					0 4 1 
					3 5 0 
					0 6 4 
					7 0 5 
					7 6 0 
					2 1 8 
					1 9 10 
					4 9 1 
					10 8 1 
					11 2 8 
					2 11 3 
					11 12 3 
					3 12 5 
					4 6 9 
					13 5 12 
					13 14 5 
					14 7 5 
					9 6 15 
					16 15 6 
					7 17 6 
					17 16 6 
					14 18 7 
					7 18 17 
					11 8 10 
					19 10 9 
					15 19 9 
					10 20 11 
					10 19 21 
					20 10 21 
					20 12 11 
					12 22 13 
					20 22 12 
					23 24 13 
					13 25 14 
					24 25 13 
					23 13 22 
					26 14 25 
					14 26 18 
					15 16 19 
					16 27 19 
					28 16 17 
					16 28 27 
					17 29 28 
					29 17 18 
					26 30 18 
					18 30 29 
					21 19 27 
					20 23 22 
					20 21 23 
					27 31 21 
					23 21 31 
					24 23 31 
					24 31 32 
					32 25 24 
					25 32 33 
					33 26 25 
					33 34 26 
					26 34 30 
					27 35 31 
					28 35 27 
					36 28 29 
					28 36 35 
					37 29 30 
					29 37 38 
					38 36 29 
					37 30 34 
					39 32 31 
					35 39 31 
					39 40 32 
					40 33 32 
					33 41 34 
					33 42 41 
					40 42 33 
					34 43 37 
					34 41 43 
					35 44 39 
					35 36 44 
					45 44 36 
					38 45 36 
					37 45 38 
					46 37 43 
					37 46 45 
					39 47 40 
					44 47 39 
					40 48 42 
					47 48 40 
					41 49 43 
					49 41 42 
					42 50 49 
					48 50 42 
					51 43 49 
					51 46 43 
					44 45 47 
					45 52 47 
					53 45 46 
					45 53 52 
					51 53 46 
					48 47 52 
					48 54 50 
					52 54 48 
					49 50 51 
					50 55 51 
					50 56 55 
					57 56 50 
					54 57 50 
					58 51 55 
					58 59 51 
					51 59 53 
					54 52 60 
					52 53 60 
					53 61 60 
					59 61 53 
					54 62 57 
					60 62 54 
					58 55 56 
					56 63 58 
					56 64 63 
					65 64 56 
					62 65 56 