<?xml version="1.0"?>
<VTKFile type="PolyData" version="0.1" byte_order="LittleEndian" compressor="vtkZLibDataCompressor">
	<PolyData>
		<Piece NumberOfPoints="464" NumberOfVerts="0" NumberOfLines="0" NumberOfStrips="0" NumberOfPolys="916">
		<PointData Normals="Normals">
		<DataArray type="Float32" Name="Normals" NumberOfComponents="3" format="ascii">
			-0.901436 -0.284281 -0.326493
			-0.779090 -0.188392 -0.597936
			-0.796333 -0.272432 -0.540032
			-0.865460 -0.376378 -0.330634
			-0.885396 -0.362964 -0.290398
			-0.870764 -0.422187 -0.252048
			-0.905778 -0.366663 -0.212424
			-0.867657 -0.040756 -0.495490
			-0.817885 -0.097189 -0.567114
			-0.915756 -0.294108 -0.273662
			-0.939449 -0.193023 -0.283157
			-0.790122 -0.084065 -0.607158
			-0.584065 -0.150989 -0.797540
			-0.649803 -0.070238 -0.756851
			-0.848694 -0.360892 -0.386620
			-0.866175 -0.299964 -0.399702
			-0.332785  0.053001 -0.941512
			 0.166298  0.303780 -0.938117
			-0.817970 -0.406366 -0.407175
			-0.643892 -0.195240 -0.739787
			-0.903442 -0.332012 -0.271221
			-0.866608 -0.386480 -0.315632
			-0.895415 -0.310378 -0.319214
			-0.918839 -0.272520 -0.285427
			-0.909882 -0.375518 -0.176356
			-0.901967 -0.336579 -0.270499
			-0.939087 -0.287349 -0.188540
			-0.657232 -0.025201 -0.753267
			-0.398381  0.162669 -0.902680
			-0.931698 -0.144248 -0.333363
			-0.873879 -0.044153 -0.484134
			-0.391139  0.241356 -0.888120
			-0.416478  0.045498 -0.908007
			-0.663279 -0.031125 -0.747725
			-0.076801  0.246039 -0.966212
			 0.699657  0.533466 -0.475284
			 0.925074  0.366555 -0.099377
			 0.893434  0.441791 -0.081215
			 0.366107  0.335153 -0.868123
			-0.865667 -0.371402 -0.335681
			-0.810280 -0.419166 -0.409568
			-0.470078 -0.167489 -0.866587
			-0.901502 -0.421309  0.098958
			-0.886378 -0.364770 -0.285091
			-0.850889 -0.496061  0.172947
			-0.795967 -0.352299  0.492263
			-0.911257 -0.300403 -0.281724
			-0.763428 -0.473299  0.439506
			-0.841057 -0.471235  0.265634
			-0.893572 -0.342226 -0.290533
			-0.941058 -0.332169 -0.063827
			 0.125007  0.304836 -0.944165
			 0.675542  0.367411 -0.639259
			-0.826021 -0.078187 -0.558189
			-0.935755 -0.121509 -0.331055
			-0.894831 -0.096233 -0.435910
			-0.367825  0.288438 -0.884030
			 0.510692  0.428490 -0.745379
			 0.856191  0.400307 -0.326637
			 0.881611  0.435976 -0.180795
			 0.941749  0.335604 -0.021866
			 0.939457  0.340513 -0.038351
			 0.952132  0.290231 -0.095974
			 0.685782  0.499895 -0.528969
			 0.894602  0.439496  0.080812
			-0.888864 -0.397443 -0.227946
			-0.541331 -0.165606 -0.824340
			-0.830179 -0.322311 -0.454884
			-0.576044 -0.385136  0.721002
			-0.753595 -0.434014  0.493686
			-0.890839 -0.453204  0.031815
			-0.746477 -0.587786  0.311897
			-0.474008 -0.565625  0.674821
			-0.793745 -0.534142  0.290964
			-0.724755 -0.150490  0.672371
			-0.203620 -0.189357  0.960564
			-0.787687 -0.524726  0.322820
			-0.625148 -0.531245  0.571811
			-0.420938 -0.437637  0.794535
			-0.226005 -0.379613  0.897115
			-0.417988 -0.480589  0.770922
			-0.716950 -0.504453  0.481154
			-0.880223 -0.469410  0.069723
			-0.845639 -0.246047 -0.473661
			 0.940218  0.285123 -0.186266
			 0.961997  0.248881  0.112340
			-0.797394 -0.077323 -0.598485
			-0.919403 -0.041819 -0.391088
			-0.937534 -0.180609 -0.297340
			-0.330931  0.374812 -0.866025
			 0.644961  0.503739 -0.574693
			 0.955984  0.242924 -0.164570
			 0.767325  0.635367 -0.086724
			 0.853102  0.503719 -0.135956
			 0.925648  0.212136  0.313329
			 0.959356  0.165496  0.228576
			 0.945070  0.189478  0.266348
			 0.939457  0.340513 -0.038351
			 0.936381  0.348589 -0.040949
			 0.971923  0.229739  0.050845
			 0.958994  0.259652 -0.113629
			 0.811668  0.534228 -0.236212
			 0.902265  0.256852  0.346331
			-0.905978 -0.340955 -0.250904
			-0.799822 -0.434108  0.414531
			-0.343774 -0.007444 -0.939023
			-0.797168 -0.437856 -0.415698
			-0.784975 -0.351138 -0.510408
			-0.848993 -0.299538 -0.435303
			 0.146548 -0.157511  0.976583
			-0.170735 -0.298432  0.939036
			 0.241612 -0.197998  0.949958
			-0.285825 -0.450093  0.846003
			-0.095318 -0.337523  0.936479
			-0.025688 -0.268845  0.962841
			 0.280232 -0.081098  0.956501
			 0.436808 -0.009940  0.899500
			 0.298738 -0.127413  0.945792
			 0.159315 -0.257994  0.952921
			-0.213821 -0.443852  0.870216
			-0.700654 -0.502474  0.506560
			-0.904551 -0.425878 -0.020362
			-0.851908 -0.234701 -0.468153
			 0.905919  0.376561 -0.193683
			 0.960481  0.277257 -0.024574
			 0.890947  0.133891  0.433921
			 0.745645  0.080914  0.661412
			 0.832731  0.151571  0.532527
			 0.948403 -0.086318  0.305091
			 0.965023  0.260960  0.025117
			 0.921732  0.184676  0.341036
			 0.954753  0.069042  0.289276
			-0.791438  0.042203 -0.609791
			-0.922716 -0.090257 -0.374765
			-0.917619 -0.035295 -0.395890
			-0.271109  0.423342 -0.864454
			 0.646042  0.537947 -0.541519
			 0.713464 -0.001461  0.700690
			 0.615063  0.056445  0.786455
			 0.951459  0.300444 -0.066776
			 0.971140  0.203016 -0.125183
			 0.892413  0.131534  0.431623
			 0.650076 -0.035028  0.759062
			 0.983338  0.141050 -0.114677
			 0.921812  0.260184  0.287346
			 0.888521  0.270762  0.370431
			 0.977968  0.149240  0.145965
			 0.743546  0.587774 -0.318843
			 0.819924  0.494276  0.288818
			 0.863809  0.450849  0.224877
			 0.798166  0.144149  0.584938
			-0.886320 -0.443248  0.134048
			-0.075819 -0.429957  0.899660
			-0.298199  0.022433 -0.954240
			-0.787893 -0.443695 -0.427036
			-0.769683 -0.369796 -0.520423
			-0.765253 -0.351659 -0.539188
			-0.881853 -0.457224 -0.115248
			 0.482088 -0.092752  0.871200
			 0.531670 -0.058366  0.844938
			 0.558827 -0.076844  0.825717
			 0.296781 -0.239578  0.924404
			-0.057782 -0.372842  0.926094
			-0.629359 -0.480825  0.610504
			-0.933076 -0.358204  0.032545
			-0.879395 -0.086862 -0.468103
			 0.893424  0.387252 -0.227659
			 0.943450  0.320095 -0.086261
			 0.918709  0.353726 -0.175648
			 0.947168  0.171005  0.271348
			 0.686551 -0.039415  0.726012
			 0.944457 -0.074790  0.320011
			 0.804467  0.130715  0.579436
			-0.759093  0.117166 -0.640352
			-0.914158  0.008623 -0.405265
			-0.963239 -0.002587 -0.268633
			-0.252028  0.467741 -0.847172
			 0.722861  0.478234 -0.498762
			 0.834931  0.482840  0.264114
			 0.760551  0.590903 -0.269064
			 0.846197  0.468300  0.254256
			 0.764240  0.307005  0.567173
			-0.120732 -0.439635  0.890025
			-0.764070 -0.389150 -0.514548
			-0.199969  0.083882 -0.976205
			-0.736138 -0.372582 -0.565052
			-0.744204 -0.422163 -0.517628
			-0.527845 -0.555856  0.642186
			 0.413944 -0.144138  0.898818
			 0.055228 -0.376632  0.924715
			-0.953055 -0.283600  0.106098
			-0.662223 -0.517759  0.541651
			-0.890176  0.002103 -0.455612
			 0.928065  0.276983 -0.248949
			 0.971384  0.179968  0.154998
			 0.990468  0.137569  0.006859
			 0.773393  0.011229  0.633827
			-0.844472  0.076134 -0.530162
			-0.947844 -0.033813 -0.316935
			-0.475169  0.375241 -0.795870
			 0.791593  0.411645 -0.451585
			 0.835569  0.422013  0.351751
			 0.815477  0.574944 -0.066615
			 0.895409  0.394092  0.207207
			 0.664392  0.219864  0.714313
			-0.740422 -0.406187 -0.535524
			-0.749265 -0.386971 -0.537453
			-0.083418  0.122214 -0.988992
			-0.728071 -0.426169 -0.536928
			-0.761596 -0.644352  0.069150
			 0.051142 -0.265735  0.962689
			 0.514560 -0.184159  0.837445
			 0.469822 -0.294285  0.832264
			 0.053482 -0.532378  0.844816
			-0.968730 -0.106526 -0.224084
			-0.484743 -0.620128  0.616818
			-0.847514 -0.500144  0.177696
			 0.951229  0.217076 -0.219184
			 0.849982 -0.030404  0.525933
			 0.975216  0.103782  0.195404
			-0.903087  0.098803 -0.417938
			-0.944351  0.016862 -0.328507
			 0.800785  0.365457 -0.474537
			 0.115496  0.443818 -0.888643
			 0.855023  0.406465  0.322059
			 0.789252  0.405928  0.460763
			 0.860706  0.509099  0.002035
			 0.766224  0.213945  0.605911
			-0.752816 -0.407880 -0.516626
			-0.714341 -0.476664 -0.512356
			 0.218454  0.265301 -0.939092
			-0.733483 -0.671130  0.107639
			 0.067384 -0.275570  0.958916
			 0.756097 -0.111200  0.644944
			 0.441740 -0.337260  0.831337
			 0.699744 -0.176694  0.692197
			 0.094115 -0.507051  0.856762
			-0.972114 -0.074771 -0.222271
			-0.823825 -0.455758  0.337041
			-0.230511 -0.526841  0.818110
			 0.946733  0.251586 -0.201002
			 0.975094  0.055518  0.214733
			-0.315834  0.295052 -0.901772
			-0.907526  0.113954 -0.404242
			 0.851211  0.323779 -0.413046
			 0.720374  0.291333  0.629433
			 0.790347  0.428788  0.437598
			 0.814771  0.541979 -0.205926
			-0.759718 -0.426481 -0.490859
			-0.317350 -0.073049 -0.945491
			-0.759115 -0.468032 -0.452428
			-0.456184 -0.643236  0.614933
			 0.441146 -0.293882  0.847952
			 0.678270 -0.178221  0.712873
			 0.941259 -0.042201  0.335040
			-0.990973 -0.009954 -0.133690
			-0.832412 -0.340667  0.437077
			 0.008226 -0.485661  0.874108
			 0.968310  0.188429 -0.163921
			-0.923055  0.010292 -0.384530
			-0.232723  0.302749 -0.924220
			 0.826154  0.222917 -0.517472
			 0.903787  0.257079 -0.342170
			-0.970674  0.105237 -0.216140
			-0.927389  0.095051 -0.361822
			 0.681484  0.235034  0.693065
			 0.801924  0.416336  0.428466
			 0.855726  0.517423 -0.002554
			-0.772236 -0.382640 -0.507186
			-0.787436 -0.403207 -0.466227
			 0.322854  0.247639 -0.913477
			-0.804267 -0.426074 -0.414266
			-0.353910 -0.714135  0.603953
			 0.567729 -0.234137  0.789217
			 0.800839  0.018531  0.598593
			 0.986320  0.163986  0.016795
			-0.879197 -0.245628  0.408264
			 0.534373 -0.368306  0.760786
			-0.214419 -0.564478  0.797113
			-0.947253  0.078442 -0.310738
			-0.832090  0.082671 -0.548445
			 0.171922  0.371778 -0.912263
			 0.738206  0.341809 -0.581566
			 0.946956  0.145099 -0.286740
			 0.966749  0.170910 -0.190224
			-0.970709  0.165757 -0.173924
			 0.808967  0.389023  0.440719
			 0.686347  0.071279  0.723773
			 0.839933  0.412309  0.352864
			-0.796943 -0.337612 -0.500900
			-0.794412 -0.353884 -0.493636
			-0.822382 -0.344329 -0.452908
			 0.890156  0.437122  0.128635
			 0.039362  0.134283 -0.990161
			-0.432528 -0.817681  0.379891
			 0.703541  0.020525  0.710358
			 0.912733  0.192147  0.360552
			-0.883105 -0.171331  0.436774
			-0.134917 -0.514097  0.847055
			 0.542301 -0.487469  0.684312
			 0.779239 -0.003420  0.626717
			-0.976680  0.129014 -0.171612
			-0.955742 -0.056105 -0.288808
			-0.836839  0.069934 -0.542964
			-0.096571  0.419620 -0.902548
			 0.799493  0.336091 -0.497849
			 0.965050  0.169721  0.199682
			 0.966096  0.195837 -0.168244
			 0.713829 -0.107941  0.691952
			 0.824546  0.335700  0.455445
			-0.433777 -0.744653 -0.507276
			-0.103396 -0.901215 -0.420858
			-0.402255 -0.912524 -0.074105
			 0.358065 -0.485080 -0.797802
			 0.888735 -0.421234  0.180864
			-0.878367 -0.180089  0.442764
			-0.174777 -0.498636  0.849008
			 0.794573 -0.290265  0.533292
			 0.469597 -0.520021  0.713482
			 0.907088  0.149525  0.393488
			-0.950886  0.040177 -0.306924
			-0.998638  0.043243 -0.029187
			-0.863704  0.007618 -0.503942
			 0.165434  0.466111 -0.869121
			 0.838284  0.274243 -0.471244
			 0.959245  0.281105 -0.028789
			 0.788067 -0.498741  0.360844
			-0.742237 -0.256533  0.619092
			 0.051763 -0.395790  0.916881
			 0.870617 -0.163414  0.464029
			 0.651497 -0.302000  0.695951
			 0.908655  0.230246  0.348328
			-0.955829  0.143821 -0.256334
			-0.966403 -0.079392 -0.244465
			-0.988050  0.040244  0.148787
			-0.572412  0.376665 -0.728333
			-0.914549 -0.016453 -0.404141
			 0.368278  0.500688 -0.783379
			 0.801153  0.294974 -0.520714
			 0.961365  0.266294 -0.069751
			-0.433873 -0.276267  0.857573
			 0.417722 -0.153063  0.895589
			 0.951082 -0.039612  0.306389
			 0.828693 -0.216163  0.516277
			-0.977030  0.135535 -0.164449
			-0.943817  0.016520 -0.330057
			-0.930810  0.106408  0.349672
			-0.486033  0.459227 -0.743560
			 0.402800  0.583758 -0.704967
			 0.814046  0.401088 -0.420069
			 0.976130  0.205312 -0.070833
			 0.984283 -0.029787  0.174067
			-0.091273 -0.125470  0.987890
			 0.682977 -0.194107  0.704177
			 0.899322 -0.183899  0.396738
			-0.980340  0.185820 -0.066363
			-0.982820  0.079233 -0.166695
			-0.809726  0.344614 -0.474958
			-0.824457  0.201688  0.528765
			-0.130341  0.693345 -0.708720
			 0.502087  0.658248 -0.560908
			 0.854260  0.459847 -0.242445
			 0.996799  0.047230  0.064514
			 0.925319 -0.220032  0.308823
			 0.212615 -0.260085  0.941887
			 0.755454 -0.303075  0.580892
			-0.967478  0.249943  0.038933
			-0.992586  0.082182 -0.089552
			-0.914398  0.293036 -0.279296
			-0.547794  0.650409 -0.526203
			-0.704524  0.142634  0.695198
			 0.061348  0.765297 -0.640748
			 0.656078  0.603484 -0.453177
			 0.947798  0.286581 -0.139822
			 0.970897 -0.148884  0.187600
			 0.796403 -0.332660  0.505054
			 0.384889 -0.269018  0.882887
			-0.963819  0.254318  0.079850
			-0.984991  0.159969  0.064822
			-0.938929  0.290534 -0.184400
			-0.641635  0.622598 -0.447968
			-0.480610 -0.021308  0.876675
			 0.085370  0.758127 -0.646495
			 0.606987  0.593099 -0.528961
			 0.954836  0.228993 -0.189340
			 0.991396 -0.086377  0.098355
			 0.837859 -0.389458  0.382511
			 0.493656 -0.467702  0.733184
			-0.641609 -0.233224  0.730715
			-0.971357  0.201513  0.125931
			-0.946464  0.320371 -0.039598
			-0.772174  0.573886 -0.272769
			-0.336373  0.806204 -0.486712
			 0.336635  0.806154 -0.486614
			 0.912104  0.363391 -0.189770
			 0.976611 -0.122000  0.177050
			 0.789452 -0.460313  0.406051
			 0.380096 -0.590138  0.712225
			-0.722166 -0.218340  0.656357
			-0.957667  0.285965  0.033140
			-0.758368  0.624960 -0.185211
			-0.481093  0.812550 -0.329107
			 0.343762  0.829771 -0.439668
			 0.720172  0.631552 -0.287218
			 0.989344  0.141492  0.034317
			 0.541858 -0.612646  0.575374
			 0.882454 -0.380769  0.276207
			-0.555920 -0.404644  0.726096
			-0.975118  0.096026  0.199808
			-0.740570  0.627623 -0.240094
			-0.954529  0.295030 -0.042803
			-0.168131  0.914555 -0.367861
			 0.650245  0.700384 -0.294355
			 0.990393  0.136894 -0.019527
			 0.845387 -0.472334  0.249442
			 0.453558 -0.702455  0.548491
			-0.956086  0.164228  0.242754
			-0.575284 -0.366465  0.731267
			-0.969193  0.242975  0.040358
			-0.758240  0.576573 -0.304362
			-0.179799  0.863469 -0.471268
			 0.651795  0.602362 -0.460785
			 0.979822 -0.047123 -0.194240
			 0.823162 -0.562695  0.076014
			 0.442630 -0.756433  0.481547
			-0.923103  0.208936  0.322842
			-0.961499  0.199944  0.188528
			-0.605273 -0.255244  0.753987
			-0.832248  0.492083 -0.255378
			-0.312573  0.791861 -0.524647
			 0.570158  0.607828 -0.552689
			 0.953468 -0.086747 -0.288746
			 0.421957 -0.685354  0.593500
			 0.796809 -0.566317  0.210669
			-0.876003  0.292481  0.383502
			-0.921053  0.213812  0.325493
			-0.816605  0.520826 -0.248790
			-0.398879 -0.086380  0.912926
			-0.242924  0.725983 -0.643379
			 0.566282  0.441933 -0.695716
			 0.898440 -0.133484 -0.418315
			 0.452666 -0.326472  0.829765
			 0.899374 -0.356740  0.252713
			-0.926438  0.376446  0.001049
			-0.835530  0.322735  0.444670
			-0.267745  0.345757  0.899313
			-0.197203  0.497398 -0.844811
			 0.509388  0.270978 -0.816759
			 0.863867 -0.175582 -0.472128
			 0.268106  0.233088  0.934767
			 0.987479 -0.128236  0.091875
			-0.840675 -0.060145  0.538190
			-0.639680  0.424762 -0.640615
			-0.617886  0.099071  0.780001
			 0.525475  0.267411 -0.807693
			 0.932305  0.144037 -0.331755
			 0.612183  0.325146  0.720772
			-0.767428  0.404714  0.497253
			-0.946611  0.232546  0.223273
			-0.321881  0.804083 -0.499842
			-0.593479  0.587491  0.550125
			 0.377620  0.435977  0.816901
			 0.135514  0.916378 -0.376679
			 0.365809  0.925442 -0.098695
		</DataArray>
	</PointData>
	<Points>
		<DataArray type="Float32" NumberOfComponents="3" format="ascii">
			-0.010103 -0.202978 -0.094372
			-0.006970 -0.200167 -0.103841
			-0.004778 -0.205814 -0.104030
			-0.005634 -0.206410 -0.101718
			-0.007785 -0.209078 -0.091291
			-0.013321 -0.208325 -0.077333
			-0.013859 -0.207285 -0.077175
			-0.008335 -0.194326 -0.102873
			-0.007689 -0.197091 -0.103331
			-0.014166 -0.204416 -0.079231
			-0.013973 -0.202697 -0.081725
			-0.007422 -0.198237 -0.103521
			-0.003563 -0.205150 -0.105621
			-0.006321 -0.199806 -0.104432
			-0.004606 -0.207360 -0.103263
			-0.005205 -0.205897 -0.103064
			-0.004488 -0.200555 -0.105488
			-0.001083 -0.205150 -0.107346
			 0.001096 -0.215265 -0.107159
			 0.001588 -0.214817 -0.108591
			-0.005981 -0.206598 -0.100209
			-0.005080 -0.207892 -0.101265
			-0.010602 -0.212132 -0.079496
			-0.007382 -0.210478 -0.091557
			-0.010923 -0.214456 -0.076624
			-0.014897 -0.205286 -0.075848
			-0.016604 -0.202506 -0.073127
			-0.006766 -0.197123 -0.104149
			-0.007196 -0.193703 -0.103835
			-0.011881 -0.191461 -0.088965
			-0.009846 -0.188770 -0.100500
			-0.008807 -0.188151 -0.101695
			-0.005512 -0.199355 -0.105168
			-0.006162 -0.198523 -0.104627
			-0.004109 -0.198780 -0.105162
			-0.002777 -0.200049 -0.105542
			 0.000833 -0.205621 -0.099259
			 0.003722 -0.214307 -0.105956
			 0.002975 -0.214123 -0.109114
			-0.003794 -0.219719 -0.092943
			 0.004348 -0.225642 -0.102452
			 0.006911 -0.223257 -0.110219
			-0.007008 -0.223786 -0.076577
			-0.013914 -0.208221 -0.075708
			-0.011807 -0.212506 -0.075416
			-0.009607 -0.214677 -0.071700
			-0.015146 -0.205581 -0.074700
			-0.015637 -0.202915 -0.068109
			-0.018318 -0.197643 -0.066963
			-0.018874 -0.196768 -0.073821
			-0.015685 -0.205041 -0.073476
			-0.003963 -0.197770 -0.104960
			-0.005712 -0.193143 -0.103530
			-0.018187 -0.189445 -0.076827
			-0.013777 -0.186305 -0.085090
			-0.011697 -0.183409 -0.097780
			-0.010207 -0.182520 -0.099507
			-0.007073 -0.187486 -0.101397
			-0.003432 -0.196727 -0.097562
			-0.002374 -0.196585 -0.095577
			 0.004707 -0.215959 -0.093112
			 0.001930 -0.207210 -0.086498
			-0.000274 -0.201322 -0.086968
			 0.008500 -0.222673 -0.109515
			 0.008371 -0.224165 -0.100671
			-0.002427 -0.231950 -0.081916
			 0.012537 -0.231589 -0.111695
			 0.003674 -0.239089 -0.089458
			-0.004692 -0.223476 -0.072220
			-0.002138 -0.232841 -0.075645
			-0.014575 -0.208106 -0.073898
			-0.011998 -0.210899 -0.072181
			-0.008960 -0.213055 -0.070417
			-0.012868 -0.209175 -0.071485
			-0.010007 -0.212892 -0.071710
			-0.006476 -0.213733 -0.069048
			-0.013537 -0.208091 -0.071342
			-0.012515 -0.208076 -0.068822
			-0.012829 -0.206378 -0.068054
			-0.013571 -0.202367 -0.066238
			-0.016736 -0.197345 -0.064770
			-0.019900 -0.192272 -0.063619
			-0.021291 -0.192164 -0.067850
			-0.021359 -0.191342 -0.073138
			-0.004635 -0.188263 -0.090338
			 0.000306 -0.195262 -0.074967
			-0.019404 -0.183593 -0.075546
			-0.013865 -0.178239 -0.094696
			-0.014531 -0.180101 -0.084809
			-0.012231 -0.177233 -0.096769
			-0.008353 -0.181884 -0.098722
			-0.000473 -0.200244 -0.086763
			-0.000803 -0.197709 -0.084397
			-0.000506 -0.197797 -0.083052
			 0.003066 -0.208857 -0.073274
			 0.005927 -0.218002 -0.077220
			 0.008294 -0.227240 -0.081927
			 0.002761 -0.208415 -0.076827
			 0.001629 -0.206233 -0.084926
			 0.001884 -0.200984 -0.076132
			 0.000929 -0.204283 -0.084344
			 0.014248 -0.230981 -0.110808
			 0.011852 -0.236185 -0.085219
			 0.001882 -0.240605 -0.084964
			 0.002151 -0.241876 -0.076401
			 0.017749 -0.239956 -0.114070
			 0.015849 -0.241686 -0.108548
			 0.013575 -0.243757 -0.101939
			 0.007576 -0.248079 -0.091535
			-0.001277 -0.222243 -0.070579
			 0.000872 -0.231992 -0.072729
			 0.004445 -0.241078 -0.075112
			-0.010748 -0.207495 -0.067917
			-0.009118 -0.206959 -0.067081
			-0.006423 -0.212152 -0.068784
			-0.001947 -0.210013 -0.069933
			-0.000822 -0.211051 -0.070277
			-0.006814 -0.199641 -0.065925
			-0.011511 -0.195284 -0.064238
			-0.018732 -0.191998 -0.062341
			-0.022317 -0.187039 -0.061553
			-0.024430 -0.186889 -0.067893
			-0.023996 -0.186196 -0.071093
			-0.005646 -0.182709 -0.086670
			-0.001464 -0.189273 -0.075947
			-0.002394 -0.190613 -0.069994
			-0.001744 -0.196986 -0.069481
			-0.001012 -0.199045 -0.069976
			 0.000262 -0.199132 -0.072751
			 0.000868 -0.197301 -0.075382
			 0.000781 -0.198632 -0.074425
			 0.000523 -0.198880 -0.073595
			-0.022203 -0.178592 -0.073017
			-0.017691 -0.175542 -0.080450
			-0.015356 -0.172790 -0.091606
			-0.013486 -0.171722 -0.093467
			-0.010971 -0.176834 -0.096032
			 0.003592 -0.219747 -0.072783
			 0.000805 -0.208555 -0.071593
			 0.002398 -0.207350 -0.076013
			 0.002635 -0.207507 -0.074431
			 0.002803 -0.207619 -0.073306
			 0.003829 -0.230537 -0.073696
			 0.002449 -0.207184 -0.077197
			 0.001366 -0.201463 -0.074474
			 0.002050 -0.204074 -0.073399
			 0.002791 -0.205960 -0.073891
			 0.019561 -0.239338 -0.112974
			 0.018071 -0.240875 -0.107530
			 0.017099 -0.242348 -0.101085
			 0.014942 -0.245615 -0.086788
			 0.005056 -0.250911 -0.080905
			 0.006717 -0.250595 -0.078356
			 0.023776 -0.248050 -0.115925
			 0.021883 -0.249721 -0.110747
			 0.019679 -0.251667 -0.104720
			 0.013046 -0.256101 -0.095347
			 0.008967 -0.259594 -0.084853
			-0.003735 -0.204668 -0.067580
			-0.000825 -0.209600 -0.070254
			-0.005538 -0.192544 -0.066018
			-0.012360 -0.189380 -0.062336
			-0.019436 -0.186139 -0.059790
			-0.024508 -0.181737 -0.059341
			-0.026664 -0.181634 -0.065491
			-0.026104 -0.180851 -0.068932
			-0.008285 -0.177276 -0.086426
			-0.003612 -0.183329 -0.077616
			-0.005982 -0.177652 -0.078195
			-0.003383 -0.184488 -0.069821
			-0.006055 -0.186396 -0.064784
			-0.000391 -0.199704 -0.070993
			 0.000231 -0.201753 -0.071251
			-0.023365 -0.172982 -0.070092
			-0.018355 -0.169788 -0.077154
			-0.016521 -0.167422 -0.087181
			-0.015096 -0.166293 -0.090556
			-0.012104 -0.171299 -0.092572
			 0.024264 -0.248862 -0.109599
			 0.025069 -0.247621 -0.115066
			 0.023325 -0.250217 -0.103791
			 0.021095 -0.253434 -0.090002
			 0.009606 -0.259571 -0.083267
			 0.026928 -0.258323 -0.112133
			 0.030060 -0.256005 -0.117939
			 0.021205 -0.262556 -0.101527
			 0.017963 -0.264956 -0.095516
			 0.014388 -0.267915 -0.086948
			-0.011106 -0.182458 -0.061398
			-0.021494 -0.180756 -0.057743
			-0.028457 -0.176211 -0.063018
			-0.026096 -0.176242 -0.056791
			-0.027785 -0.175396 -0.066365
			-0.009469 -0.171854 -0.082374
			-0.004704 -0.178648 -0.068733
			-0.005676 -0.172656 -0.067700
			-0.006202 -0.179887 -0.064851
			-0.023097 -0.166403 -0.069531
			-0.018109 -0.162473 -0.081228
			-0.016423 -0.160795 -0.087352
			-0.012753 -0.165823 -0.087492
			 0.028867 -0.257682 -0.110832
			 0.031356 -0.255649 -0.116627
			 0.026104 -0.260939 -0.098239
			 0.025766 -0.262253 -0.091055
			 0.028118 -0.270006 -0.104955
			 0.033559 -0.265888 -0.115610
			 0.035636 -0.264316 -0.119676
			 0.023831 -0.273251 -0.096561
			 0.020287 -0.275933 -0.089621
			 0.021615 -0.275428 -0.089139
			-0.012646 -0.176795 -0.059765
			-0.014761 -0.171565 -0.056909
			-0.023146 -0.175300 -0.055104
			-0.029343 -0.170362 -0.060873
			-0.027264 -0.170887 -0.052285
			-0.029062 -0.171058 -0.055825
			-0.006768 -0.165899 -0.071730
			-0.007003 -0.173863 -0.063580
			-0.006489 -0.166916 -0.064686
			-0.023052 -0.160070 -0.068016
			-0.018253 -0.156034 -0.080863
			-0.013399 -0.160146 -0.083664
			-0.016942 -0.154930 -0.084373
			 0.031005 -0.269038 -0.103107
			 0.035265 -0.265316 -0.114518
			 0.036675 -0.264169 -0.117774
			 0.029801 -0.271250 -0.092739
			 0.038838 -0.274355 -0.117190
			 0.029446 -0.281619 -0.097839
			 0.040698 -0.272916 -0.121023
			 0.026835 -0.283639 -0.092460
			 0.027420 -0.283491 -0.091786
			-0.008633 -0.168436 -0.060706
			-0.019055 -0.167424 -0.052849
			-0.010628 -0.163219 -0.057465
			-0.025896 -0.170472 -0.051373
			-0.031583 -0.165569 -0.055617
			-0.030896 -0.165993 -0.051218
			-0.028587 -0.165466 -0.048598
			-0.008488 -0.160151 -0.071078
			-0.007424 -0.161053 -0.062755
			-0.017714 -0.149035 -0.082217
			-0.024478 -0.154920 -0.062897
			-0.012889 -0.154242 -0.078296
			 0.033647 -0.280193 -0.095264
			 0.040248 -0.273876 -0.116326
			 0.041642 -0.272728 -0.119629
			 0.043865 -0.283299 -0.116512
			 0.046159 -0.281411 -0.121942
			 0.035502 -0.290182 -0.096724
			 0.034298 -0.291174 -0.093874
			-0.020945 -0.162113 -0.049918
			-0.010960 -0.157083 -0.055690
			-0.008375 -0.155523 -0.058786
			-0.032329 -0.160054 -0.051035
			-0.031941 -0.160485 -0.047364
			-0.029538 -0.159783 -0.045583
			-0.008575 -0.154622 -0.064905
			-0.020346 -0.144376 -0.077136
			-0.018334 -0.143127 -0.079757
			-0.016368 -0.142724 -0.077245
			-0.011732 -0.148448 -0.070588
			-0.032327 -0.153927 -0.048343
			-0.024225 -0.148381 -0.062137
			 0.037593 -0.289449 -0.095585
			 0.045459 -0.282740 -0.115644
			 0.047363 -0.281046 -0.120932
			 0.049677 -0.291300 -0.119522
			 0.045128 -0.294779 -0.110394
			 0.051423 -0.289965 -0.123027
			 0.041761 -0.297920 -0.100150
			 0.040801 -0.298814 -0.097232
			-0.019027 -0.154939 -0.048856
			-0.009598 -0.149975 -0.055637
			-0.008507 -0.148990 -0.058972
			-0.032358 -0.154603 -0.044223
			-0.024627 -0.151647 -0.042848
			-0.030259 -0.154100 -0.041979
			-0.024016 -0.144922 -0.062728
			-0.020349 -0.141074 -0.077283
			-0.018541 -0.140138 -0.078489
			-0.017062 -0.139755 -0.077094
			-0.011008 -0.139412 -0.063743
			-0.010568 -0.142719 -0.062447
			-0.032032 -0.150839 -0.046406
			 0.047409 -0.293962 -0.109254
			 0.043618 -0.297237 -0.099330
			 0.051010 -0.290851 -0.118685
			 0.054552 -0.300077 -0.120291
			 0.055446 -0.299345 -0.122378
			 0.048266 -0.305217 -0.105624
			 0.056596 -0.298943 -0.121744
			 0.055952 -0.298931 -0.123559
			 0.047730 -0.305655 -0.104373
			-0.014824 -0.146284 -0.051154
			-0.010175 -0.143322 -0.057694
			-0.031809 -0.151552 -0.041397
			-0.029822 -0.151013 -0.039669
			-0.026358 -0.149501 -0.040227
			-0.014915 -0.143030 -0.051231
			-0.031584 -0.147735 -0.044173
			-0.023584 -0.141371 -0.063309
			-0.021126 -0.138307 -0.076084
			-0.019218 -0.137351 -0.077160
			-0.015958 -0.136689 -0.072942
			-0.010641 -0.140184 -0.058013
			-0.011106 -0.136423 -0.062198
			 0.049897 -0.304646 -0.104724
			 0.055749 -0.299658 -0.119630
			 0.058946 -0.308919 -0.121951
			 0.055380 -0.311536 -0.115469
			 0.054638 -0.312081 -0.114121
			 0.060657 -0.307663 -0.125061
			 0.059996 -0.308574 -0.121234
			-0.031459 -0.148340 -0.040086
			-0.029581 -0.147909 -0.037967
			-0.022286 -0.144388 -0.041227
			-0.026075 -0.146475 -0.037933
			-0.011554 -0.137329 -0.057708
			-0.028295 -0.142082 -0.050533
			-0.031847 -0.145073 -0.041004
			-0.021724 -0.135539 -0.074438
			-0.019648 -0.134438 -0.075976
			-0.014566 -0.133544 -0.068548
			-0.011628 -0.133443 -0.061674
			 0.056614 -0.311132 -0.114626
			-0.030664 -0.145165 -0.037406
			-0.028129 -0.144369 -0.035885
			-0.020554 -0.140256 -0.042103
			-0.024723 -0.142844 -0.036659
			-0.012506 -0.134552 -0.057016
			-0.028261 -0.138851 -0.050141
			-0.026206 -0.136957 -0.056672
			-0.031520 -0.142089 -0.038334
			-0.021295 -0.132153 -0.074012
			-0.023984 -0.133945 -0.069731
			-0.019479 -0.131445 -0.073765
			-0.015309 -0.130549 -0.068682
			-0.012789 -0.130594 -0.061965
			-0.029639 -0.141820 -0.035195
			-0.026117 -0.140347 -0.035361
			-0.014127 -0.132456 -0.053798
			-0.020009 -0.136959 -0.040821
			-0.028291 -0.135955 -0.047841
			-0.024852 -0.131343 -0.067744
			-0.030756 -0.138979 -0.035325
			-0.021484 -0.129252 -0.072140
			-0.019155 -0.128424 -0.071333
			-0.014871 -0.127542 -0.065879
			-0.013624 -0.127741 -0.061445
			-0.014196 -0.129226 -0.053672
			-0.029445 -0.138609 -0.034281
			-0.021413 -0.134665 -0.038283
			-0.017158 -0.131945 -0.044323
			-0.027663 -0.132671 -0.046261
			-0.026485 -0.130169 -0.058815
			-0.023762 -0.127471 -0.068643
			-0.029126 -0.135200 -0.034277
			-0.021114 -0.126219 -0.069659
			-0.018150 -0.125321 -0.067669
			-0.014359 -0.124824 -0.061074
			-0.013896 -0.125784 -0.053920
			-0.015477 -0.127744 -0.045762
			-0.027284 -0.134553 -0.033588
			-0.021013 -0.131358 -0.037436
			-0.027238 -0.129460 -0.044758
			-0.027018 -0.127714 -0.055058
			-0.025146 -0.125624 -0.063271
			-0.022898 -0.124187 -0.066462
			-0.027008 -0.131239 -0.033106
			-0.020149 -0.123103 -0.066175
			-0.017260 -0.122515 -0.062456
			-0.014479 -0.122699 -0.054201
			-0.014849 -0.124257 -0.045457
			-0.019127 -0.127274 -0.037628
			-0.024761 -0.130333 -0.032997
			-0.025749 -0.125991 -0.042136
			-0.026788 -0.125213 -0.049628
			-0.026437 -0.123976 -0.056425
			-0.022604 -0.121402 -0.062642
			-0.026283 -0.127728 -0.032693
			-0.020317 -0.120348 -0.063351
			-0.017993 -0.119761 -0.061065
			-0.014413 -0.119694 -0.052327
			-0.014010 -0.120629 -0.045484
			-0.018162 -0.123765 -0.036590
			-0.022420 -0.126105 -0.032917
			-0.024545 -0.124013 -0.030966
			-0.025434 -0.122351 -0.043572
			-0.026340 -0.121510 -0.051117
			-0.024243 -0.119734 -0.056809
			-0.021352 -0.118139 -0.059340
			-0.018805 -0.117200 -0.058677
			-0.014843 -0.117215 -0.048449
			-0.014334 -0.118222 -0.040889
			-0.017977 -0.120973 -0.033089
			-0.021830 -0.122951 -0.030631
			-0.023001 -0.120489 -0.028541
			-0.025087 -0.118276 -0.047638
			-0.024324 -0.117530 -0.050324
			-0.020871 -0.115567 -0.053713
			-0.018593 -0.114642 -0.053644
			-0.016594 -0.114456 -0.049690