<?xml version="1.0"?>
<VTKFile type="PolyData" version="0.1" byte_order="LittleEndian" compressor="vtkZLibDataCompressor">
	<PolyData>
		<Piece NumberOfPoints="53" NumberOfVerts="0" NumberOfLines="0" NumberOfStrips="0" NumberOfPolys="20">
		<PointData Normals="Normals">
		<DataArray type="Float32" Name="Normals" NumberOfComponents="3" format="ascii">
			 1.000000  0.000000  0.000000
			 1.000000  0.000000  0.000000
			 1.000000  0.000000  0.000000
			 1.000000  0.000000  0.000000
			 1.000000  0.000000  0.000000
			 1.000000  0.000000  0.000000
			 1.000000  0.000000  0.000000
			 1.000000  0.000000  0.000000
			 1.000000  0.000000  0.000000
			 1.000000  0.000000  0.000000
			 1.000000  0.000000  0.000000
			 1.000000  0.000000  0.000000
			 1.000000  0.000000  0.000000
			 1.000000  0.000000  0.000000
			 1.000000  0.000000  0.000000
			 1.000000  0.000000  0.000000
			 1.000000  0.000000  0.000000
			 1.000000  0.000000  0.000000
			 1.000000  0.000000  0.000000
			 1.000000  0.000000  0.000000
			 1.000000  0.000000  0.000000
			 1.000000  0.000000  0.000000
			 1.000000  0.000000  0.000000
			 1.000000  0.000000  0.000000
			 1.000000  0.000000  0.000000
			 1.000000  0.000000  0.000000
			 1.000000  0.000000  0.000000
			 1.000000  0.000000  0.000000
			 1.000000  0.000000  0.000000
			 1.000000  0.000000  0.000000
			 1.000000  0.000000  0.000000
			 1.000000  0.000000  0.000000
			 1.000000  0.000000  0.000000
			 1.000000  0.000000  0.000000
			 1.000000  0.000000  0.000000
			 1.000000  0.000000  0.000000
			 1.000000  0.000000  0.000000
			 1.000000  0.000000  0.000000
			 1.000000  0.000000  0.000000
			 1.000000  0.000000  0.000000
			 1.000000  0.000000  0.000000
			 1.000000  0.000000  0.000000
			 1.000000  0.000000  0.000000
			 1.000000  0.000000  0.000000
			 1.000000  0.000000  0.000000
			 1.000000  0.000000  0.000000
			 1.000000  0.000000  0.000000
			 1.000000  0.000000  0.000000
			 1.000000  0.000000  0.000000
			 1.000000  0.000000  0.000000
			 1.000000  0.000000  0.000000
			 1.000000  0.000000  0.000000
			 1.000000  0.000000  0.000000
		</DataArray>
	</PointData>
	<Points>
		<DataArray type="Float32" NumberOfComponents="3" format="ascii">
			-0.500000  0.000000  0.100000
			-0.500000  0.000000  0.200000
			-0.400000  0.000000  0.200000
			-0.400000  0.000000  0.100000
			-0.400000  0.000000  0.000000
			-0.300000  0.000000  0.100000
			-0.300000  0.000000  0.000000
			-0.500000  0.000000 -0.100000
			-0.500000  0.000000  0.000000
			-0.400000  0.000000 -0.100000
			-0.300000  0.000000  0.200000
			-0.200000  0.000000  0.200000
			-0.200000  0.000000  0.100000
			-0.300000  0.000000 -0.100000
			-0.200000  0.000000  0.000000
			-0.200000  0.000000 -0.100000
			-0.400000  0.000000 -0.200000
			-0.300000  0.000000 -0.200000
			-0.100000  0.000000  0.100000
			-0.100000  0.000000  0.000000
			-0.200000  0.000000 -0.200000
			-0.100000  0.000000 -0.100000
			-0.100000  0.000000 -0.200000
			-0.100000  0.000000  0.200000
			 0.000000  0.000000  0.200000
			 0.000000  0.000000  0.100000
			 0.000000  0.000000  0.000000
			 0.000000  0.000000 -0.100000
			 0.100000  0.000000  0.100000
			 0.100000  0.000000  0.000000
			 0.000000  0.000000 -0.200000
			 0.100000  0.000000 -0.100000
			 0.100000  0.000000 -0.200000
			 0.100000  0.000000  0.200000
			 0.200000  0.000000  0.200000
			 0.200000  0.000000  0.100000
			 0.200000  0.000000  0.000000
			 0.200000  0.000000 -0.100000
			 0.300000  0.000000  0.100000
			 0.300000  0.000000  0.000000
			 0.200000  0.000000 -0.200000
			 0.300000  0.000000 -0.100000
			 0.300000  0.000000 -0.200000
			 0.300000  0.000000  0.200000
			 0.400000  0.000000  0.200000
			 0.400000  0.000000  0.100000
			 0.400000  0.000000  0.000000
			 0.400000  0.000000 -0.100000
			 0.500000  0.000000  0.100000
			 0.500000  0.000000  0.000000
			 0.400000  0.000000 -0.200000
			 0.500000  0.000000 -0.100000
			 0.500000  0.000000 -0.200000
		</DataArray>
	</Points>
			<Polys>
				<DataArray type="Int32" Name="connectivity" format="ascii">
					0 1 2 3 
					4 3 5 6 
					7 8 4 9 
					5 10 11 12 
					13 6 14 15 
					16 9 13 17 
					14 12 18 19 
					20 15 21 22 
					18 23 24 25 
					21 19 26 27 
					26 25 28 29 
					30 27 31 32 
					28 33 34 35 
					31 29 36 37 
					36 35 38 39 
					40 37 41 42 
					38 43 44 45 
					41 39 46 47 
					46 45 48 49 
					50 47 51 52 
				</DataArray>
				<DataArray type="Int32" Name="offsets" format="ascii">
					4 8 12 16 20 24 28 32 36 40 44 48 52 56 60 64 68 72 76 80 
				</DataArray>
			</Polys>
		</Piece>
	</PolyData>
</VTKFile>
