<?xml version="1.0"?>
<VTKFile type="PolyData" version="0.1" byte_order="LittleEndian" compressor="vtkZLibDataCompressor">
	<PolyData>
		<Piece NumberOfPoints="53" NumberOfVerts="0" NumberOfLines="0" NumberOfStrips="0" NumberOfPolys="20">
		<PointData Normals="Normals">
		<DataArray type="Float32" Name="Normals" NumberOfComponents="3" format="ascii">
			 1.000000  0.000000  0.000000
			 1.000000  0.000000  0.000000
			 1.000000  0.000000  0.000000
			 1.000000  0.000000  0.000000
			 1.000000  0.000000  0.000000
			 1.000000  0.000000  0.000000
			 1.000000  0.000000  0.000000
			 1.000000  0.000000  0.000000
			 1.000000  0.000000  0.000000
			 1.000000  0.000000  0.000000
			 1.000000  0.000000  0.000000
			 1.000000  0.000000  0.000000
			 1.000000  0.000000  0.000000
			 1.000000  0.000000  0.000000
			 1.000000  0.000000  0.000000
			 1.000000  0.000000  0.000000
			 1.000000  0.000000  0.000000
			 1.000000  0.000000  0.000000
			 1.000000  0.000000  0.000000
			 1.000000  0.000000  0.000000
			 1.000000  0.000000  0.000000
			 1.000000  0.000000  0.000000
			 1.000000  0.000000  0.000000
			 1.000000  0.000000  0.000000
			 1.000000  0.000000  0.000000
			 1.000000  0.000000  0.000000
			 1.000000  0.000000  0.000000
			 1.000000  0.000000  0.000000
			 1.000000  0.000000  0.000000
			 1.000000  0.000000  0.000000
			 1.000000  0.000000  0.000000
			 1.000000  0.000000  0.000000
			 1.000000  0.000000  0.000000
			 1.000000  0.000000  0.000000
			 1.000000  0.000000  0.000000
			 1.000000  0.000000  0.000000
			 1.000000  0.000000  0.000000
			 1.000000  0.000000  0.000000
			 1.000000  0.000000  0.000000
			 1.000000  0.000000  0.000000
			 1.000000  0.000000  0.000000
			 1.000000  0.000000  0.000000
			 1.000000  0.000000  0.000000
			 1.000000  0.000000  0.000000
			 1.000000  0.000000  0.000000
			 1.000000  0.000000  0.000000
			 1.000000  0.000000  0.000000
			 1.000000  0.000000  0.000000
			 1.000000  0.000000  0.000000
			 1.000000  0.000000  0.000000
			 1.000000  0.000000  0.000000
			 1.000000  0.000000  0.000000
			 1.000000  0.000000  0.000000
		</DataArray>
	</PointData>
	<Points>
		<DataArray type="Float32" NumberOfComponents="3" format="ascii">
			-0.500000  0.000000  0.000000
			-0.500000  0.000000  0.100000
			-0.400000  0.000000  0.100000
			-0.400000  0.000000  0.000000
			-0.400000  0.000000  0.200000
			-0.300000  0.000000  0.200000
			-0.300000  0.000000  0.100000
			-0.400000  0.000000 -0.100000
			-0.300000  0.000000  0.000000
			-0.300000  0.000000 -0.100000
			-0.200000  0.000000  0.100000
			-0.200000  0.000000  0.000000
			-0.500000  0.000000 -0.200000
			-0.500000  0.000000 -0.100000
			-0.400000  0.000000 -0.200000
			-0.300000  0.000000 -0.200000
			-0.200000  0.000000 -0.100000
			-0.200000  0.000000 -0.200000
			-0.200000  0.000000  0.200000
			-0.100000  0.000000  0.200000
			-0.100000  0.000000  0.100000
			-0.100000  0.000000  0.000000
			-0.100000  0.000000 -0.100000
			 0.000000  0.000000  0.100000
			 0.000000  0.000000  0.000000
			-0.100000  0.000000 -0.200000
			 0.000000  0.000000 -0.100000
			 0.000000  0.000000 -0.200000
			 0.000000  0.000000  0.200000
			 0.100000  0.000000  0.200000
			 0.100000  0.000000  0.100000
			 0.100000  0.000000  0.000000
			 0.100000  0.000000 -0.100000
			 0.200000  0.000000  0.100000
			 0.200000  0.000000  0.000000
			 0.100000  0.000000 -0.200000
			 0.200000  0.000000 -0.100000
			 0.200000  0.000000 -0.200000
			 0.200000  0.000000  0.200000
			 0.300000  0.000000  0.200000
			 0.300000  0.000000  0.100000
			 0.300000  0.000000  0.000000
			 0.300000  0.000000 -0.100000
			 0.400000  0.000000  0.100000
			 0.400000  0.000000  0.000000
			 0.300000  0.000000 -0.200000
			 0.400000  0.000000 -0.100000
			 0.400000  0.000000 -0.200000
			 0.400000  0.000000  0.200000
			 0.500000  0.000000  0.200000
			 0.500000  0.000000  0.100000
			 0.500000  0.000000  0.000000
			 0.500000  0.000000 -0.100000
		</DataArray>
	</Points>
			<Polys>
				<DataArray type="Int32" Name="connectivity" format="ascii">
					0 1 2 3 
					2 4 5 6 
					7 3 8 9 
					8 6 10 11 
					12 13 7 14 
					15 9 16 17 
					10 18 19 20 
					16 11 21 22 
					21 20 23 24 
					25 22 26 27 
					23 28 29 30 
					26 24 31 32 
					31 30 33 34 
					35 32 36 37 
					33 38 39 40 
					36 34 41 42 
					41 40 43 44 
					45 42 46 47 
					43 48 49 50 
					46 44 51 52 
				</DataArray>
				<DataArray type="Int32" Name="offsets" format="ascii">
					4 8 12 16 20 24 28 32 36 40 44 48 52 56 60 64 68 72 76 80 
				</DataArray>
			</Polys>
		</Piece>
	</PolyData>
</VTKFile>
