<?xml version="1.0"?>
<VTKFile type="PolyData" version="0.1" byte_order="LittleEndian" compressor="vtkZLibDataCompressor">
	<PolyData>
		<Piece NumberOfPoints="8" NumberOfVerts="0" NumberOfLines="0" NumberOfStrips="0" NumberOfPolys="6">
		<PointData Normals="Normals">
		<DataArray type="Float32" Name="Normals" NumberOfComponents="3" format="ascii">
			-0.577350 -0.577350  0.577350
			 0.577350 -0.577350  0.577350
			 0.577350  0.577350  0.577350
			-0.577350  0.577350  0.577350
			-0.577350 -0.577350 -0.577350
			-0.577350  0.577350 -0.577350
			 0.577350 -0.577350 -0.577350
			 0.577350  0.577350 -0.577350
		</DataArray>
	</PointData>
	<Points>
		<DataArray type="Float32" NumberOfComponents="3" format="ascii">
			-0.050000  0.000000  0.050000
			 0.050000  0.000000  0.050000
			 0.050000  0.100000  0.050000
			-0.050000  0.100000  0.050000
			-0.050000  0.000000 -0.050000
			-0.050000  0.100000 -0.050000
			 0.050000  0.000000 -0.050000
			 0.050000  0.100000 -0.050000
		</DataArray>
	</Points>
			<Polys>
				<DataArray type="Int32" Name="connectivity" format="ascii">
					0 1 2 3 
					4 0 3 5 
					0 4 6 1 
					1 6 7 2 
					3 2 7 5 
					5 7 6 4 
				</DataArray>
				<DataArray type="Int32" Name="offsets" format="ascii">
					4 8 12 16 20 24 
				</DataArray>
			</Polys>
		</Piece>
	</PolyData>
</VTKFile>
