<?xml version="1.0"?>
<VTKFile type="PolyData" version="0.1" byte_order="LittleEndian" compressor="vtkZLibDataCompressor">
	<PolyData>
		<Piece NumberOfPoints="210" NumberOfVerts="0" NumberOfLines="0" NumberOfStrips="0" NumberOfPolys="416">
		<PointData Normals="Normals">
		<DataArray type="Float32" Name="Normals" NumberOfComponents="3" format="ascii">
			 0.438549 -0.808518  0.392394
			 0.274535 -0.596840  0.753931
			-0.492950 -0.867834  0.062166
			 0.074837 -0.858960 -0.506545
			 0.709323 -0.702539 -0.057449
			 0.777409 -0.257308  0.573958
			 0.366198 -0.079505  0.927134
			-0.677837 -0.067615  0.732096
			-0.270218  0.210269  0.939558
			-0.890135  0.420228  0.176260
			-0.908434 -0.318466 -0.270791
			-0.449924 -0.197125 -0.871040
			 0.554301 -0.641622 -0.530162
			 0.479535 -0.247862 -0.841790
			-0.304732  0.109199 -0.946157
			 0.931178 -0.363636 -0.026023
			 0.729287 -0.261547  0.632245
			 0.277163 -0.068350  0.958389
			-0.567730  0.282091  0.773374
			-0.829507  0.377462 -0.411632
			-0.898356  0.433246  0.072484
			-0.310212  0.049099 -0.949399
			-0.002835 -0.201886 -0.979405
			 0.718832 -0.386457 -0.577868
			-0.846869  0.374178 -0.377893
			 0.903950 -0.366939  0.219615
			 0.742431 -0.234765  0.627441
			 0.331508 -0.057170  0.941719
			-0.529759  0.335399  0.779014
			-0.895001  0.441580  0.063091
			-0.796950  0.262707 -0.543927
			-0.368058 -0.067047 -0.927383
			 0.091062 -0.226075 -0.969844
			 0.680645 -0.421020 -0.599554
			 0.904694 -0.394940  0.159847
			 0.664164 -0.232346  0.710565
			 0.223977  0.015825  0.974466
			-0.567113  0.350908  0.745149
			-0.895526  0.443644  0.034834
			-0.749644  0.221378 -0.623719
			-0.205707 -0.129355 -0.970027
			 0.314285 -0.353476 -0.881068
			 0.851053 -0.463473 -0.246783
			 0.838860 -0.408613  0.359653
			 0.517100 -0.270071  0.812200
			 0.247095 -0.009012  0.968949
			-0.616665  0.388483  0.684693
			-0.885237  0.464631  0.021782
			-0.847070  0.334149 -0.413299
			-0.331885 -0.042864 -0.942345
			-0.090849 -0.219306 -0.971417
			 0.552607 -0.423348 -0.717915
			 0.886685 -0.462372  0.001142
			 0.854886 -0.363660  0.370028
			 0.200237 -0.107676  0.973813
			-0.579911  0.305835  0.755094
			 0.655444 -0.311333  0.688087
			-0.891092  0.452356  0.036445
			-0.843830  0.277193 -0.459473
			-0.579617  0.020751 -0.814625
			-0.095861 -0.219520 -0.970887
			 0.319818 -0.422521 -0.848052
			 0.778275 -0.520547 -0.351168
			 0.836160 -0.474290  0.275471
			-0.294064  0.289923  0.910753
			-0.883368  0.450506  0.129246
			 0.310787 -0.093786  0.945841
			 0.661592 -0.361445  0.657003
			-0.855778  0.267423 -0.442865
			-0.450078 -0.095783 -0.887837
			 0.041517 -0.382119 -0.923180
			 0.479010 -0.490598 -0.727917
			 0.717882 -0.610333 -0.334872
			 0.780689 -0.585843  0.217516
			-0.808540  0.471364  0.352249
			-0.218524  0.295096  0.930143
			-0.893425  0.447592  0.038120
			 0.270418 -0.089035  0.958617
			 0.625092 -0.433017  0.649427
			-0.876862  0.350270 -0.329278
			-0.550832 -0.012876 -0.834517
			-0.000381 -0.370638 -0.928777
			 0.427626 -0.551494 -0.716233
			 0.627216 -0.733378 -0.262217
			 0.759393 -0.636661  0.134109
			-0.635561  0.279823  0.719556
			-0.929419  0.361921  0.072074
			 0.444258 -0.235954  0.864269
			-0.041809  0.044417  0.998138
			 0.685576 -0.509421  0.520073
			-0.914634  0.211970 -0.344257
			-0.656502 -0.025825 -0.753882
			-0.083677 -0.360063 -0.929168
			 0.266526 -0.677528 -0.685506
			 0.465733 -0.838791 -0.281997
			 0.620144 -0.747978  0.236537
			-0.924110  0.292162  0.246295
			-0.576285  0.259331  0.775012
			-0.959767  0.159905 -0.230820
			 0.397081 -0.470224  0.788172
			 0.065433 -0.157399  0.985365
			 0.547606 -0.647834  0.529564
			-0.669154 -0.050033 -0.741438
			-0.168635 -0.460951 -0.871256
			 0.094739 -0.664835 -0.740958
			 0.318508 -0.750299 -0.579314
			 0.587333 -0.763635 -0.268144
			 0.637908 -0.749164  0.178401
			-0.980236  0.187967  0.061694
			-0.892864  0.197808  0.404555
			-0.486175 -0.111682  0.866695
			-0.950669  0.071922 -0.301755
			 0.104179 -0.392823  0.913694
			 0.365544 -0.585516  0.723567
			 0.559469 -0.661052  0.500005
			-0.698853 -0.153838 -0.698526
			-0.300847 -0.478577 -0.824897
			 0.088010 -0.681904 -0.726127
			 0.398262 -0.635284 -0.661667
			 0.612850 -0.612373 -0.499413
			 0.792522 -0.593161 -0.141665
			 0.737152 -0.632157  0.238714
			-0.994432  0.065781  0.082324
			-0.865817 -0.104947  0.489231
			-0.311724 -0.297685  0.902337
			-0.953474  0.012305 -0.301223
			 0.164109 -0.391623  0.905373
			 0.513398 -0.366940  0.775743
			 0.723325 -0.358783  0.589979
			-0.754478 -0.090380 -0.650073
			-0.156629 -0.347621 -0.924460
			-0.516941 -0.218640 -0.827628
			 0.176446 -0.400915 -0.898963
			 0.763513 -0.423548 -0.487499
			 0.511046 -0.387212 -0.767397
			 0.907399 -0.417435 -0.048743
			 0.850232 -0.432242  0.300455
			-0.997985  0.063095  0.006745
			-0.956970 -0.008573  0.290062
			-0.619672 -0.143780  0.771579
			-0.001394 -0.189143  0.981949
			-0.924219  0.045713 -0.379116
			 0.433200 -0.158951  0.887171
			 0.713780  0.059067  0.697874
			 0.924666  0.016240  0.380433
			-0.724948 -0.055291 -0.686581
			-0.400858  0.014483 -0.916026
			-0.114590  0.034608 -0.992810
			 0.217538  0.018473 -0.975877
			 0.598012 -0.071505 -0.798291
			 0.852123 -0.080394 -0.517131
			 0.985256 -0.076909 -0.152825
			-0.990396  0.003863  0.138207
			-0.984055 -0.001285 -0.177861
			-0.828407  0.004856  0.560106
			-0.291927  0.016590  0.956297
			 0.294498  0.025048  0.955324
			-0.821397 -0.031290 -0.569498
			 0.646035  0.291687  0.705378
			 0.694980  0.562674  0.447662
			 0.836290  0.532842  0.129221
			-0.402424  0.181960 -0.897188
			-0.097560  0.329098 -0.939243
			 0.266468  0.473104 -0.839743
			 0.591650  0.540582 -0.598097
			 0.783212  0.552773 -0.284642
			-0.893039  0.063398  0.445492
			-0.997442  0.019702 -0.068718
			-0.852684 -0.006249 -0.522389
			-0.429485  0.233432  0.872383
			-0.022311  0.188155  0.981886
			 0.701240  0.437823  0.562649
			 0.385456  0.272047  0.881711
			-0.514722  0.177595 -0.838762
			 0.648765  0.699813  0.298940
			 0.611457  0.790844  0.026191
			 0.088315  0.450765 -0.888263
			-0.106792  0.306856 -0.945746
			 0.420743  0.648936 -0.633922
			 0.579480  0.744921 -0.330598
			-0.443826  0.500038  0.743626
			-0.879388  0.346692  0.326316
			-0.973007  0.229349 -0.025625
			-0.910406  0.201063 -0.361573
			-0.589673  0.227773 -0.774858
			 0.034707  0.531706  0.846217
			 0.573004  0.599154  0.559179
			 0.693152  0.686413  0.219949
			-0.106337  0.321443 -0.940940
			 0.695256  0.716433 -0.057829
			 0.317848  0.415426 -0.852288
			 0.616843  0.566653 -0.546268
			-0.075600  0.775388  0.626944
			-0.357151  0.770843  0.527488
			-0.764468  0.592852  0.253208
			-0.912524  0.401699 -0.077061
			-0.759148  0.396160 -0.516481
			-0.327393  0.383415 -0.863601
			 0.479971  0.753537  0.449233
			 0.866729  0.493430 -0.072858
			 0.088669  0.421572 -0.902449
			 0.534736  0.436382 -0.723622
			 0.245911  0.871473  0.424337
			-0.241871  0.884478  0.398995
			-0.418895  0.898700  0.129869
			-0.499731  0.861724 -0.087756
			-0.343993  0.672110 -0.655696
			 0.646240  0.568083 -0.509563
			 0.387004  0.917632  0.090439
			 0.134973  0.865209 -0.482903
		</DataArray>
	</PointData>
	<Points>
		<DataArray type="Float32" NumberOfComponents="3" format="ascii">
			-0.016557 -0.123238 -0.020761
			-0.020651 -0.124958 -0.017627
			-0.024369 -0.126311 -0.020062
			-0.018652 -0.123810 -0.026950
			-0.015528 -0.122707 -0.024047
			-0.016072 -0.116564 -0.021809
			-0.020304 -0.118346 -0.018443
			-0.023232 -0.125985 -0.017113
			-0.022978 -0.119418 -0.017703
			-0.024048 -0.119720 -0.020629
			-0.024489 -0.126129 -0.025857
			-0.023398 -0.125658 -0.027000
			-0.015971 -0.122807 -0.025879
			-0.016544 -0.116571 -0.026253
			-0.022897 -0.119002 -0.027408
			-0.015364 -0.116186 -0.024382
			-0.016929 -0.110466 -0.021489
			-0.021712 -0.112465 -0.018091
			-0.023170 -0.113025 -0.018308
			-0.024019 -0.119479 -0.026436
			-0.023712 -0.113113 -0.021425
			-0.022829 -0.112521 -0.027688
			-0.018827 -0.110961 -0.027677
			-0.016129 -0.109950 -0.026625
			-0.023327 -0.112742 -0.026994
			-0.015796 -0.109940 -0.023629
			-0.016468 -0.103819 -0.022089
			-0.020390 -0.105467 -0.019076
			-0.022699 -0.106383 -0.018657
			-0.023436 -0.106546 -0.021795
			-0.022850 -0.106079 -0.027813
			-0.022174 -0.105787 -0.028528
			-0.018024 -0.104172 -0.028490
			-0.015696 -0.103303 -0.027507
			-0.015351 -0.103261 -0.025180
			-0.017219 -0.097663 -0.022173
			-0.021330 -0.099377 -0.019349
			-0.022221 -0.099721 -0.019466
			-0.022823 -0.099824 -0.022767
			-0.022134 -0.099306 -0.029080
			-0.020732 -0.098722 -0.030046
			-0.016305 -0.097036 -0.029033
			-0.014536 -0.096406 -0.027510
			-0.014983 -0.096681 -0.024954
			-0.016554 -0.090939 -0.022712
			-0.021013 -0.092780 -0.020116
			-0.021958 -0.093142 -0.020286
			-0.022468 -0.093211 -0.023563
			-0.021658 -0.092644 -0.029889
			-0.020662 -0.092202 -0.031246
			-0.018560 -0.091378 -0.031365
			-0.014982 -0.090047 -0.029767
			-0.014271 -0.089834 -0.028140
			-0.014876 -0.090206 -0.024703
			-0.019970 -0.085912 -0.020556
			-0.020924 -0.086276 -0.020756
			-0.015233 -0.083931 -0.023946
			-0.021573 -0.086387 -0.024339
			-0.021380 -0.086041 -0.031178
			-0.020879 -0.085815 -0.031962
			-0.018457 -0.084840 -0.032714
			-0.015787 -0.083831 -0.031913
			-0.013559 -0.083045 -0.029836
			-0.013465 -0.083122 -0.026972
			-0.020243 -0.079536 -0.021535
			-0.021152 -0.079782 -0.024261
			-0.017868 -0.078593 -0.021969
			-0.014146 -0.077038 -0.024583
			-0.020965 -0.079376 -0.032661
			-0.019730 -0.078822 -0.034505
			-0.017737 -0.078037 -0.034690
			-0.013961 -0.076624 -0.033202
			-0.012512 -0.076136 -0.031266
			-0.012520 -0.076286 -0.027567
			-0.020387 -0.076291 -0.023523
			-0.019455 -0.075972 -0.022365
			-0.021170 -0.076435 -0.027564
			-0.016908 -0.074970 -0.022641
			-0.012323 -0.073061 -0.025689
			-0.020675 -0.076013 -0.033357
			-0.019254 -0.075376 -0.035481
			-0.017363 -0.074619 -0.035972
			-0.014757 -0.073645 -0.034915
			-0.010657 -0.072199 -0.031050
			-0.010320 -0.072158 -0.028773
			-0.019888 -0.072899 -0.022889
			-0.020828 -0.073103 -0.026998
			-0.014126 -0.070600 -0.024236
			-0.018561 -0.072401 -0.022390
			-0.010166 -0.068935 -0.027277
			-0.020595 -0.072727 -0.034204
			-0.019583 -0.072258 -0.036081
			-0.017220 -0.071288 -0.037316
			-0.011817 -0.069249 -0.035633
			-0.008084 -0.067905 -0.032807
			-0.007923 -0.067919 -0.030869
			-0.020994 -0.069996 -0.025719
			-0.019682 -0.069579 -0.023321
			-0.021145 -0.069702 -0.034616
			-0.012952 -0.066917 -0.024317
			-0.017456 -0.068739 -0.022634
			-0.008797 -0.065166 -0.027607
			-0.019947 -0.069139 -0.037042
			-0.016513 -0.067742 -0.038521
			-0.013233 -0.066469 -0.038398
			-0.006617 -0.063989 -0.035881
			-0.004853 -0.063369 -0.034168
			-0.004887 -0.063425 -0.033120
			-0.022019 -0.066996 -0.030195
			-0.020666 -0.066685 -0.024734
			-0.018916 -0.066100 -0.022292
			-0.021610 -0.066634 -0.035322
			-0.015676 -0.064844 -0.022102
			-0.009533 -0.062375 -0.023979
			-0.006289 -0.060999 -0.026797
			-0.019787 -0.065792 -0.038635
			-0.016643 -0.064475 -0.040930
			-0.011734 -0.062558 -0.041021
			-0.007391 -0.060917 -0.039713
			-0.004693 -0.059964 -0.037221
			-0.003537 -0.059628 -0.034311
			-0.003845 -0.059875 -0.031128
			-0.022901 -0.064053 -0.031852
			-0.021064 -0.063690 -0.022898
			-0.019397 -0.063113 -0.021070
			-0.022712 -0.063827 -0.035682
			-0.014878 -0.061359 -0.020892
			-0.008617 -0.058824 -0.023273
			-0.005176 -0.057359 -0.026401
			-0.021007 -0.063028 -0.039071
			-0.015549 -0.060728 -0.043433
			-0.017012 -0.061319 -0.042890
			-0.010628 -0.058815 -0.043284
			-0.004220 -0.056546 -0.037509
			-0.007794 -0.057770 -0.041806
			-0.002783 -0.056145 -0.033484
			-0.003221 -0.056464 -0.029757
			-0.023849 -0.061179 -0.032365
			-0.022345 -0.060978 -0.022627
			-0.021243 -0.060628 -0.020650
			-0.017446 -0.059182 -0.019780
			-0.023342 -0.060819 -0.036487
			-0.011289 -0.056723 -0.021256
			-0.006945 -0.054863 -0.025466
			-0.003474 -0.053326 -0.030113
			-0.020639 -0.059585 -0.041034
			-0.018086 -0.058502 -0.043249
			-0.016614 -0.057908 -0.043761
			-0.011513 -0.055921 -0.043713
			-0.007406 -0.054397 -0.041768
			-0.004477 -0.053392 -0.038334
			-0.003180 -0.053057 -0.034007
			-0.024129 -0.058279 -0.026982
			-0.024822 -0.058258 -0.034357
			-0.022864 -0.058019 -0.021107
			-0.021512 -0.057541 -0.019896
			-0.014743 -0.054894 -0.020090
			-0.022827 -0.057263 -0.039822
			-0.012283 -0.053881 -0.021460
			-0.006744 -0.051437 -0.028617
			-0.004803 -0.050510 -0.032944
			-0.020654 -0.056314 -0.042397
			-0.017209 -0.054947 -0.043035
			-0.012193 -0.052992 -0.043011
			-0.007510 -0.051282 -0.040096
			-0.005502 -0.050610 -0.037310
			-0.024816 -0.055513 -0.022261
			-0.025994 -0.055472 -0.034881
			-0.024699 -0.054798 -0.039162
			-0.023176 -0.054932 -0.020765
			-0.018576 -0.053185 -0.019634
			-0.014129 -0.051349 -0.022189
			-0.016317 -0.052290 -0.019985
			-0.022949 -0.054040 -0.041060
			-0.010981 -0.049844 -0.029212
			-0.010194 -0.049362 -0.033640
			-0.018239 -0.052194 -0.041312
			-0.021648 -0.053518 -0.041441
			-0.013934 -0.050580 -0.039705
			-0.011229 -0.049650 -0.036554
			-0.024858 -0.052319 -0.021945
			-0.025886 -0.052666 -0.023309
			-0.026872 -0.052613 -0.034349
			-0.026373 -0.052286 -0.037682
			-0.024958 -0.051659 -0.039597
			-0.019477 -0.050259 -0.021003
			-0.017443 -0.049441 -0.021625
			-0.016400 -0.048753 -0.028750
			-0.022560 -0.050688 -0.040511
			-0.014396 -0.047721 -0.035063
			-0.019047 -0.049335 -0.040096
			-0.016051 -0.048247 -0.038089
			-0.021917 -0.047876 -0.023832
			-0.025426 -0.049177 -0.025517
			-0.026700 -0.049600 -0.027373
			-0.026876 -0.049361 -0.035171
			-0.026078 -0.048916 -0.038549
			-0.025378 -0.048621 -0.039092
			-0.020623 -0.047363 -0.024044
			-0.018079 -0.045907 -0.035788
			-0.022373 -0.047435 -0.039454
			-0.019811 -0.046487 -0.038190
			-0.023307 -0.044974 -0.029427
			-0.024847 -0.045576 -0.029388
			-0.026302 -0.046074 -0.031124
			-0.026763 -0.046075 -0.035638
			-0.025700 -0.045583 -0.037601
			-0.020060 -0.043444 -0.036085
			-0.019623 -0.043323 -0.034872
			-0.023681 -0.044780 -0.038025
		</DataArray>
	</Points>
			<Polys>
				<DataArray type="Int32" Name="connectivity" format="ascii">
					0 1 2 
					3 4 0 
					3 0 2 
					5 0 4 
					0 5 6 
					1 0 6 
					1 7 2 
					1 6 8 
					7 1 8 
					7 9 2 
					2 9 10 
					10 3 2 
					10 11 3 
					3 12 4 
					13 12 3 
					14 13 3 
					3 11 14 
					4 13 15 
					15 5 4 
					13 4 12 
					15 16 5 
					5 16 17 
					17 6 5 
					18 8 6 
					6 17 18 
					8 9 7 
					8 18 9 
					10 9 19 
					9 20 19 
					18 20 9 
					11 10 19 
					11 19 14 
					21 22 13 
					21 13 14 
					15 13 23 
					13 22 23 
					24 21 14 
					14 19 24 
					23 25 15 
					25 16 15 
					16 26 27 
					17 16 27 
					16 25 26 
					28 18 17 
					27 28 17 
					18 28 20 
					19 20 24 
					20 29 24 
					28 29 20 
					30 21 24 
					21 30 22 
					22 30 31 
					23 22 32 
					22 31 32 
					23 32 33 
					33 34 23 
					25 23 34 
					29 30 24 
					34 26 25 
					26 35 36 
					36 27 26 
					35 26 34 
					37 28 27 
					27 36 37 
					28 37 29 
					29 38 30 
					37 38 29 
					31 30 39 
					30 38 39 
					32 31 39 
					33 32 40 
					32 39 40 
					33 40 41 
					33 41 42 
					42 43 33 
					34 33 43 
					43 35 34 
					35 44 45 
					36 35 45 
					35 43 44 
					46 37 36 
					45 46 36 
					37 46 38 
					38 47 39 
					46 47 38 
					48 40 39 
					47 48 39 
					41 40 49 
					40 48 49 
					49 50 41 
					42 41 51 
					41 50 51 
					51 52 42 
					52 53 42 
					53 43 42 
					43 53 44 
					44 54 55 
					44 56 54 
					45 44 55 
					56 44 53 
					55 46 45 
					46 55 47 
					47 57 48 
					55 57 47 
					58 49 48 
					48 57 58 
					49 58 50 
					58 59 50 
					60 51 50 
					59 60 50 
					60 61 51 
					52 51 62 
					51 61 62 
					62 63 52 
					63 56 52 
					56 53 52 
					54 56 64 
					55 54 64 
					55 65 57 
					64 65 55 
					56 66 64 
					67 56 63 
					56 67 66 
					57 65 58 
					68 59 58 
					58 65 68 
					59 68 60 
					61 60 69 
					60 68 69 
					61 69 70 
					62 61 71 
					61 70 71 
					62 71 72 
					72 73 62 
					63 62 73 
					73 67 63 
					64 74 65 
					64 66 75 
					75 74 64 
					65 76 68 
					74 76 65 
					66 77 75 
					77 66 67 
					67 73 78 
					78 77 67 
					68 79 69 
					76 79 68 
					70 69 80 
					69 79 80 
					70 80 81 
					81 71 70 
					71 81 82 
					82 72 71 
					72 82 83 
					72 83 84 
					84 73 72 
					73 84 78 
					75 85 74 
					74 86 76 
					85 86 74 
					85 75 77 
					76 86 79 
					77 87 88 
					77 88 85 
					87 77 78 
					89 78 84 
					78 89 87 
					79 90 80 
					86 90 79 
					81 80 91 
					80 90 91 
					82 81 92 
					81 91 92 
					82 92 93 
					93 83 82 
					83 93 94 
					94 95 83 
					95 89 83 
					89 84 83 
					85 96 86 
					85 88 97 
					97 96 85 
					86 98 90 
					96 98 86 
					87 99 100 
					87 89 99 
					100 88 87 
					88 100 97 
					95 101 89 
					101 99 89 
					90 98 91 
					92 91 102 
					91 98 102 
					102 103 92 
					103 93 92 
					93 103 104 
					94 93 105 
					93 104 105 
					94 105 106 
					106 107 94 
					107 95 94 
					95 107 101 
					96 108 98 
					97 109 96 
					109 108 96 
					110 97 100 
					97 110 109 
					98 111 102 
					108 111 98 
					100 99 112 
					113 99 101 
					99 113 112 
					100 112 110 
					107 114 101 
					114 113 101 
					103 102 115 
					102 111 115 
					104 103 116 
					103 115 116 
					117 105 104 
					104 116 117 
					105 117 118 
					105 118 119 
					119 106 105 
					106 120 107 
					106 119 120 
					120 121 107 
					121 114 107 
					109 122 108 
					108 122 111 
					110 123 109 
					123 122 109 
					124 110 112 
					110 124 123 
					125 115 111 
					122 125 111 
					112 126 124 
					112 113 126 
					113 127 126 
					127 113 114 
					121 128 114 
					128 127 114 
					129 116 115 
					125 129 115 
					117 116 130 
					116 131 130 
					129 131 116 
					117 130 132 
					132 118 117 
					133 119 118 
					134 133 118 
					118 132 134 
					133 120 119 
					121 120 135 
					120 133 135 
					135 136 121 
					136 128 121 
					137 125 122 
					122 123 138 
					138 137 122 
					139 123 124 
					123 139 138 
					124 140 139 
					124 126 140 
					141 129 125 
					137 141 125 
					126 142 140 
					126 127 142 
					127 143 142 
					143 127 128 
					128 136 144 
					144 143 128 
					129 145 131 
					141 145 129 
					130 146 147 
					130 131 146 
					147 132 130 
					131 145 146 
					132 147 148 
					148 134 132 
					133 149 150 
					133 150 151 
					133 134 149 
					151 135 133 
					134 148 149 
					135 151 144 
					136 135 144 
					138 152 137 
					152 153 137 
					141 137 153 
					154 138 139 
					154 152 138 
					155 139 140 
					155 154 139 
					140 156 155 
					140 142 156 
					153 157 141 
					145 141 157 
					142 158 156 
					158 142 143 
					144 159 143 
					143 159 158 
					160 144 151 
					144 160 159 
					157 161 145 
					161 146 145 
					162 147 146 
					146 161 162 
					162 148 147 
					148 162 163 
					163 149 148 
					149 163 164 
					164 150 149 
					150 164 165 
					165 151 150 
					151 165 160 
					166 167 152 
					166 152 154 
					167 153 152 
					168 157 153 
					167 168 153 
					169 166 154 
					169 154 155 
					170 155 156 
					170 169 155 
					171 156 158 
					156 171 172 
					172 170 156 
					168 173 157 
					173 161 157 
					174 158 159 
					158 174 171 
					160 175 159 
					175 174 159 
					175 160 165 
					161 176 162 
					161 173 177 
					161 177 176 
					176 163 162 
					164 163 178 
					163 176 178 
					178 179 164 
					179 165 164 
					165 179 175 
					180 181 166 
					181 167 166 
					166 169 180 
					181 182 167 
					182 183 167 
					168 167 183 
					183 184 168 
					184 173 168 
					169 170 185 
					169 185 180 
					185 170 172 
					186 172 171 
					187 171 174 
					171 187 186 
					186 185 172 
					188 177 173 
					173 184 188 
					189 174 175 
					174 189 187 
					189 175 179 
					188 176 177 
					176 188 190 
					178 176 190 
					190 191 178 
					191 179 178 
					179 191 189 
					192 180 185 
					193 181 180 
					192 193 180 
					181 194 182 
					193 194 181 
					182 195 183 
					194 195 182 
					184 183 196 
					183 195 196 
					184 196 197 
					197 188 184 
					186 198 185 
					185 198 192 
					198 186 187 
					189 199 187 
					187 199 198 
					188 197 200 
					190 188 200 
					199 189 191 
					200 201 190 
					191 190 201 
					201 199 191 
					202 192 198 
					192 202 193 
					194 193 203 
					193 202 203 
					204 195 194 
					203 204 194 
					204 205 195 
					205 196 195 
					206 197 196 
					196 205 206 
					206 200 197 
					202 198 199 
					207 208 199 
					199 208 202 
					199 201 207 
					209 201 200 
					200 206 209 
					201 209 207 
					202 204 203 
					208 204 202 
					208 205 204 
					209 205 208 
					209 206 205 
					209 208 207 
				</DataArray>
				<DataArray type="Int32" Name="offsets" format="ascii">
					3 6 9 12 15 18 21 24 27 30 33 36 39 42 45 48 51 54 57 60 63 66 69 72 75 78 81 84 87 90 93 96 99 102 105 108 111 114 117 120 123 126 129 132 135 138 141 144 147 150 153 156 159 162 165 168 171 174 177 180 183 186 189 192 195 198 201 204 207 210 213 216 219 222 225 228 231 234 237 240 243 246 249 252 255 258 261 264 267 270 273 276 279 282 285 288 291 294 297 300 303 306 309 312 315 318 321 324 327 330 333 336 339 342 345 348 351 354 357 360 363 366 369 372 375 378 381 384 387 390 393 396 399 402 405 408 411 414 417 420 423 426 429 432 435 438 441 444 447 450 453 456 459 462 465 468 471 474 477 480 483 486 489 492 495 498 501 504 507 510 513 516 519 522 525 528 531 534 537 540 543 546 549 552 555 558 561 564 567 570 573 576 579 582 585 588 591 594 597 600 603 606 609 612 615 618 621 624 627 630 633 636 639 642 645 648 651 654 657 660 663 666 669 672 675 678 681 684 687 690 693 696 699 702 705 708 711 714 717 720 723 726 729 732 735 738 741 744 747 750 753 756 759 762 765 768 771 774 777 780 783 786 789 792 795 798 801 804 807 810 813 816 819 822 825 828 831 834 837 840 843 846 849 852 855 858 861 864 867 870 873 876 879 882 885 888 891 894 897 900 903 906 909 912 915 918 921 924 927 930 933 936 939 942 945 948 951 954 957 960 963 966 969 972 975 978 981 984 987 990 993 996 999 1002 1005 1008 1011 1014 1017 1020 1023 1026 1029 1032 1035 1038 1041 1044 1047 1050 1053 1056 1059 1062 1065 1068 1071 1074 1077 1080 1083 1086 1089 1092 1095 1098 1101 1104 1107 1110 1113 1116 1119 1122 1125 1128 1131 1134 1137 1140 1143 1146 1149 1152 1155 1158 1161 1164 1167 1170 1173 1176 1179 1182 1185 1188 1191 1194 1197 1200 1203 1206 1209 1212 1215 1218 1221 1224 1227 1230 1233 1236 1239 1242 1245 1248 
				</DataArray>
			</Polys>
		</Piece>
	</PolyData>
</VTKFile>
