<?xml version="1.0"?>
<VTKFile type="PolyData" version="0.1" byte_order="LittleEndian" compressor="vtkZLibDataCompressor">
	<PolyData>
		<Piece NumberOfPoints="180" NumberOfVerts="0" NumberOfLines="0" NumberOfStrips="0" NumberOfPolys="359">
		<PointData Normals="Normals">
		<DataArray type="Float32" Name="Normals" NumberOfComponents="3" format="ascii">
			-0.934266  0.311929 -0.172766
			-0.825458 -0.564053 -0.021531
			-0.423895 -0.587004 -0.689739
			-0.519687  0.243249 -0.818997
			-0.459587  0.167167 -0.872258
			-0.918594  0.332435 -0.213711
			-0.512689  0.027358 -0.858138
			-0.925018  0.184441 -0.332150
			-0.553182 -0.054967 -0.831245
			-0.938704  0.196123  0.283496
			-0.569073 -0.108083 -0.815153
			-0.981805  0.032268  0.187131
			-0.562654 -0.140156 -0.814725
			-0.994043 -0.099976  0.043388
			-0.642967 -0.217356 -0.734405
			-0.964747 -0.093604  0.245969
			-0.776004 -0.308450 -0.550160
			-0.981519 -0.176022  0.075084
			-0.873844 -0.329308 -0.357705
			-0.958285 -0.222238  0.179722
			-0.943358 -0.175785 -0.281381
			-0.964737 -0.237651  0.113159
			-0.983201 -0.025698  0.180709
			-0.938736  0.005288 -0.344596
			-0.998390  0.050122 -0.026563
			-0.916454 -0.051975 -0.396750
			-0.995426 -0.070850  0.064096
			 0.544540 -0.800185  0.251357
			 0.137283  0.922682 -0.360293
			 0.028623  0.992656 -0.117539
			-0.246602 -0.777992 -0.577854
			-0.237617  0.011708 -0.971288
			-0.235793  0.093451 -0.967300
			-0.237211 -0.022383 -0.971200
			-0.249160 -0.092928 -0.963994
			-0.342182 -0.125826 -0.931171
			-0.357826 -0.144231 -0.922582
			-0.343270 -0.228140 -0.911108
			-0.454586 -0.356362 -0.816307
			-0.366897 -0.449390 -0.814516
			-0.799621 -0.340173 -0.494862
			-0.833104 -0.127327 -0.538262
			-0.616426  0.156804 -0.771642
			-0.444893  0.008879 -0.895540
			-0.271816 -0.381093 -0.883676
			-0.816759 -0.373668 -0.439632
			-0.235965 -0.543216 -0.805752
			-0.782971 -0.478719 -0.397221
			-0.207642  0.199030 -0.957743
			-0.513537 -0.638138 -0.573637
			-0.084028  0.907334 -0.411927
			 0.071451  0.974473 -0.212830
			 0.520400  0.465972 -0.715579
			 0.629822 -0.359512 -0.688531
			 0.643149 -0.297302 -0.705671
			 0.524584  0.061005 -0.849170
			 0.441421  0.193299 -0.876232
			-0.046748  0.181238 -0.982328
			-0.240610 -0.133366 -0.961416
			-0.320908 -0.416341 -0.850693
			 0.568923 -0.215538 -0.793644
			 0.554316 -0.068037 -0.829521
			 0.352706 -0.212567 -0.911270
			-0.902664 -0.350600 -0.249556
			 0.077873 -0.210620 -0.974461
			 0.318585 -0.103701 -0.942205
			 0.335407 -0.113864 -0.935167
			 0.393504 -0.087491 -0.915150
			 0.271451  0.003171 -0.962447
			 0.491291  0.099793 -0.865260
			-0.121178 -0.245344 -0.961833
			 0.425566  0.027910 -0.904497
			 0.177865 -0.543459 -0.820376
			-0.207193 -0.605493 -0.768407
			 0.617786 -0.361735 -0.698204
			 0.212791 -0.941462 -0.261475
			 0.490317 -0.754468 -0.436311
			 0.856584  0.035467 -0.514787
			 0.973946 -0.021674 -0.225740
			 0.949365 -0.027033 -0.313012
			 0.915353  0.006475 -0.402601
			-0.983684 -0.150403  0.098712
			-0.954608 -0.231300 -0.187682
			-0.642598 -0.457876 -0.614343
			 0.874256  0.002077 -0.485461
			 0.986119  0.133962 -0.098099
			 0.997391  0.068153 -0.023793
			 0.970655 -0.234179  0.054666
			 0.978760 -0.198084 -0.052844
			 0.635913  0.752558 -0.171087
			 0.036022  0.972730  0.229127
			 0.682134  0.710240 -0.173929
			-0.484784  0.303823  0.820168
			-0.476892  0.439846  0.760992
			-0.871053  0.102761  0.480320
			-0.931906 -0.072848  0.355308
			-0.711523 -0.549743  0.437626
			-0.799628 -0.577658  0.164032
			 0.989377  0.043134  0.138826
			-0.946482 -0.301678  0.114726
			-0.930370 -0.357331  0.082019
			-0.735006  0.021254  0.677727
			-0.663321  0.081971  0.743832
			-0.588563 -0.012881  0.808348
			-0.636309 -0.030113  0.770846
			-0.714074 -0.016865  0.699867
			-0.656228 -0.001458  0.754562
			-0.747523 -0.623827  0.228144
			-0.377059 -0.905434  0.194975
			-0.340731 -0.937009  0.076923
			-0.578649 -0.806743  0.119715
			-0.405987 -0.912402  0.051934
			 0.629766 -0.773554  0.070775
			 0.332307 -0.931752  0.146326
			 0.188879 -0.817757  0.543689
			 0.708028 -0.513337  0.484955
			 0.946372 -0.028332 -0.321833
			 0.963972  0.053118 -0.260646
			 0.942190  0.058716  0.329893
			 0.999630 -0.001775 -0.027159
			 0.567774 -0.445806  0.692019
			 0.841666 -0.025603  0.539390
			-0.163929 -0.786660  0.595225
			 0.811164  0.084186  0.578728
			 0.870795  0.074511  0.485968
			 0.946869  0.015395  0.321251
			 0.958602 -0.104092  0.265042
			 0.548977 -0.591880  0.590171
			-0.224458 -0.928852  0.294706
			 0.014265 -0.615145  0.788285
			 0.141114 -0.299678  0.943546
			 0.820200 -0.296724  0.489108
			 0.866365  0.035454  0.498151
			 0.778248  0.141155  0.611887
			 0.404502  0.238620  0.882858
			 0.321252  0.217607  0.921653
			 0.237997  0.092096  0.966890
			-0.180349 -0.064757  0.981469
			-0.032078  0.193016  0.980671
			 0.190801  0.184827  0.964071
			-0.029788  0.261011  0.964876
			-0.127791  0.217611  0.967634
			 0.083212  0.265185  0.960600
			 0.290065  0.034628  0.956380
			 0.170258 -0.426708  0.888219
			 0.360737  0.181151  0.914906
			-0.306118  0.257585  0.916483
			 0.241627 -0.335603  0.910487
			-0.533229 -0.337307  0.775817
			-0.451447  0.349170  0.821143
			-0.294033  0.146495  0.944502
			-0.338934  0.062935  0.938703
			-0.375871  0.035231  0.926002
			-0.781821 -0.039487  0.622251
			-0.519010  0.029203  0.854269
			-0.848817 -0.070185  0.524007
			-0.674976 -0.206320  0.708406
			-0.762944 -0.144375  0.630137
			-0.306523  0.026600  0.951492
			 0.008509  0.073416  0.997265
			-0.049331 -0.123735  0.991088
			 0.069895  0.043938  0.996586
			 0.057668  0.132886  0.989452
			 0.008543  0.139575  0.990175
			-0.067532  0.119435  0.990543
			-0.044749  0.109353  0.992995
			 0.003090  0.103127  0.994663
			-0.110421  0.092764  0.989546
			 0.001846  0.137874  0.990448
			 0.743777  0.098201  0.661175
			 0.585751  0.122653  0.801157
			-0.549427 -0.023886  0.835200
			-0.723893 -0.082037  0.685018
			 0.171691  0.164364  0.971343
			 0.557398  0.211570  0.802836
			 0.691260  0.190562  0.697026
			 0.724209  0.108370  0.681012
			 0.660895 -0.224686  0.716054
			 0.825855  0.006788  0.563842
			 0.352521  0.867608  0.350694
		</DataArray>
	</PointData>
	<Points>
		<DataArray type="Float32" NumberOfComponents="3" format="ascii">
			-0.002968 -0.212199  0.027104
			-0.003676 -0.218752  0.026283
			-0.000274 -0.219849  0.022187
			 0.002116 -0.215323  0.022136
			 0.007753 -0.199893  0.023376
			 0.001356 -0.200926  0.028587
			 0.009492 -0.192616  0.023288
			 0.003731 -0.192377  0.028125
			 0.011340 -0.173863  0.021518
			 0.006368 -0.172769  0.026540
			 0.010980 -0.140650  0.018672
			 0.009394 -0.140161  0.020089
			 0.011079 -0.115647  0.015243
			 0.007538 -0.115181  0.016900
			 0.007636 -0.083236  0.010427
			 0.003811 -0.083064  0.013728
			 0.002816 -0.062555  0.006343
			 0.001032 -0.062595  0.010487
			-0.001426 -0.045442  0.001923
			-0.002618 -0.044353  0.006513
			-0.004421 -0.030583 -0.001120
			-0.005528 -0.033960  0.006038
			-0.006868 -0.028900  0.004734
			-0.005339 -0.024458 -0.000599
			-0.006058 -0.023887  0.003688
			-0.004627 -0.018838 -0.000935
			-0.005796 -0.018154  0.002661
			-0.006989  0.001666 -0.000617
			-0.006003  0.000863 -0.004933
			-0.000002  0.000028 -0.000014
			 0.010582 -0.221217  0.020706
			 0.012775 -0.218284  0.018612
			 0.015553 -0.202157  0.020989
			 0.015877 -0.193244  0.020726
			 0.017233 -0.174504  0.019073
			 0.016206 -0.140800  0.014742
			 0.015352 -0.115299  0.011740
			 0.012349 -0.083004  0.007608
			 0.007526 -0.063254  0.002377
			 0.001585 -0.046376 -0.002627
			-0.000825 -0.040278 -0.004878
			-0.002770 -0.031398 -0.005873
			-0.002036 -0.024456 -0.005909
			-0.001365 -0.018977 -0.005413
			-0.001891 -0.010177 -0.005969
			-0.006205 -0.010026 -0.002540
			-0.003294 -0.006881 -0.008793
			-0.007810 -0.007088 -0.004196
			-0.003217 -0.002834 -0.010805
			-0.008622 -0.001871 -0.006438
			-0.002159  0.001217 -0.008079
			 0.004101  0.001119 -0.007024
			 0.005404  0.000037 -0.008218
			 0.006328 -0.005400 -0.007541
			 0.005283 -0.009489 -0.005277
			 0.004270 -0.018300 -0.005644
			 0.004485 -0.023531 -0.006663
			 0.000837 -0.028696 -0.008555
			 0.000229 -0.034132 -0.008804
			 0.001280 -0.040120 -0.006754
			 0.005457 -0.039353 -0.005573
			 0.004646 -0.033356 -0.007687
			 0.005968 -0.045403 -0.003644
			 0.010405 -0.062640  0.001544
			 0.016388 -0.083008  0.007110
			 0.019887 -0.115530  0.011146
			 0.020295 -0.140755  0.014482
			 0.021673 -0.174904  0.019069
			 0.021591 -0.194336  0.020503
			 0.022538 -0.203306  0.019666
			 0.017407 -0.218327  0.017442
			 0.023222 -0.214540  0.017433
			 0.021506 -0.221129  0.018714
			 0.015066 -0.223528  0.021537
			 0.023188 -0.223337  0.021803
			 0.020819 -0.229378  0.023685
			 0.024321 -0.228747  0.024263
			 0.023637 -0.194407  0.022367
			 0.024003 -0.175313  0.021961
			 0.024192 -0.139200  0.017702
			 0.023358 -0.113954  0.014740
			 0.019980 -0.082136  0.011050
			 0.015556 -0.060439  0.006696
			 0.011788 -0.039769  0.003662
			 0.009419 -0.030398  0.001121
			 0.007751 -0.021224  0.000264
			 0.007453 -0.016571  0.000874
			 0.006946 -0.008015  0.000356
			 0.009625 -0.004126 -0.000707
			 0.008472  0.001827 -0.001153
			-0.000736  0.003021  0.008610
			-0.005675  0.002497  0.002595
			 0.006184 -0.191140  0.031766
			 0.004285 -0.201158  0.035767
			 0.002578 -0.208472  0.039000
			-0.003856 -0.215441  0.028144
			 0.001157 -0.216056  0.033275
			 0.002846 -0.218121  0.037403
			 0.024094 -0.194067  0.026136
			-0.007601 -0.008815  0.001296
			-0.009162 -0.005431  0.000865
			-0.004553 -0.016808  0.007646
			-0.004437 -0.022855  0.008102
			-0.002786 -0.030844  0.010077
			 0.000046 -0.042458  0.011035
			 0.004684 -0.062476  0.014527
			 0.007891 -0.083735  0.017275
			-0.010416 -0.000584 -0.000155
			 0.005514 -0.218911  0.030546
			 0.010913 -0.220986  0.028995
			 0.014563 -0.223335  0.026621
			 0.019845 -0.229272  0.024959
			 0.023658 -0.229233  0.024671
			 0.022117 -0.230357  0.026098
			 0.021897 -0.229304  0.028113
			 0.024826 -0.228066  0.027033
			 0.023964 -0.215493  0.021182
			 0.024475 -0.204126  0.022137
			 0.024282 -0.205535  0.026369
			 0.025481 -0.215439  0.026195
			 0.021405 -0.223757  0.031304
			 0.023848 -0.216301  0.029409
			 0.019137 -0.225241  0.030544
			 0.023253 -0.174666  0.027193
			 0.021604 -0.194217  0.031331
			 0.022443 -0.205842  0.031676
			 0.021040 -0.217311  0.033648
			 0.019482 -0.222041  0.034822
			 0.012228 -0.221934  0.035909
			 0.017218 -0.220569  0.036814
			 0.019516 -0.218746  0.038080
			 0.020607 -0.219050  0.037477
			 0.021070 -0.214854  0.036460
			 0.021255 -0.205029  0.034037
			 0.019001 -0.203800  0.036065
			 0.019035 -0.193770  0.033394
			 0.018713 -0.213088  0.038759
			 0.016404 -0.215730  0.037050
			 0.015285 -0.203690  0.036202
			 0.018950 -0.173858  0.028751
			 0.014032 -0.192735  0.033253
			 0.013620 -0.173338  0.028607
			 0.011167 -0.202365  0.036074
			 0.010635 -0.216067  0.038208
			 0.013187 -0.221230  0.036985
			 0.006828 -0.212662  0.039901
			 0.003615 -0.209382  0.040662
			 0.005460 -0.217986  0.040469
			 0.003040 -0.214968  0.042585
			 0.002981 -0.212616  0.041318
			 0.013729 -0.140252  0.021826
			 0.012252 -0.115048  0.018878
			 0.007231 -0.083823  0.016409
			 0.001894 -0.063195  0.011251
			 0.004485 -0.063162  0.014138
			-0.002592 -0.043472  0.006626
			-0.005586 -0.005117  0.007024
			-0.007482  0.000016  0.007860
			-0.007656  0.002914  0.006859
			-0.000266 -0.000260  0.010681
			-0.000240 -0.004826  0.009096
			-0.000066 -0.016748  0.009313
			 0.000439 -0.021522  0.009543
			 0.001353 -0.029709  0.010738
			 0.003735 -0.040847  0.012150
			 0.007363 -0.062904  0.015025
			 0.010558 -0.083838  0.017086
			 0.016834 -0.114162  0.020126
			 0.018522 -0.139123  0.022902
			 0.023367 -0.138585  0.021668
			 0.022796 -0.114202  0.019805
			 0.019043 -0.083365  0.016046
			 0.014426 -0.061553  0.013506
			 0.009268 -0.040001  0.011043
			 0.006534 -0.028893  0.009544
			 0.005647 -0.020345  0.007394
			 0.004896 -0.015893  0.006760
			 0.005035 -0.007047  0.006314
			 0.007735 -0.000663  0.007423
			 0.007255  0.003405  0.005815
		</DataArray>
	</Points>
			<Polys>
				<DataArray type="Int32" Name="connectivity" format="ascii">
					3 2 1 
					5 4 3 
					7 6 4 
					9 8 6 
					11 10 8 
					13 12 10 
					15 14 12 
					17 16 14 
					19 18 16 
					21 20 18 
					22 20 21 
					24 26 25 
					29 28 27 
					31 30 2 
					4 32 31 
					6 33 32 
					8 34 33 
					10 35 34 
					12 36 35 
					14 37 36 
					16 38 37 
					18 39 38 
					40 39 18 
					20 41 40 
					23 42 41 
					25 43 42 
					45 44 43 
					47 46 44 
					49 48 46 
					28 50 48 
					29 50 28 
					52 48 50 
					53 46 48 
					54 44 46 
					55 43 44 
					56 42 43 
					57 42 56 
					58 41 42 
					59 40 41 
					39 40 59 
					59 60 39 
					58 61 60 
					57 56 61 
					62 39 60 
					63 38 39 
					64 37 38 
					65 36 37 
					66 35 36 
					67 34 35 
					68 33 34 
					69 32 33 
					71 70 31 
					30 31 70 
					70 71 72 
					74 73 30 
					76 75 73 
					67 78 77 
					66 79 78 
					65 80 79 
					64 81 80 
					81 82 63 
					60 83 62 
					83 84 61 
					56 85 84 
					55 86 85 
					54 87 86 
					53 88 87 
					52 89 88 
					51 89 52 
					29 89 51 
					91 90 29 
					91 27 28 
					7 92 9 
					5 93 92 
					0 94 93 
					1 95 0 
					95 96 94 
					1 96 95 
					97 94 96 
					98 77 78 
					22 24 20 
					63 82 83 
					24 102 101 
					22 103 102 
					21 103 22 
					19 104 103 
					17 105 104 
					15 106 105 
					99 45 25 
					100 47 45 
					107 49 47 
					49 28 27 
					109 2 30 
					1 2 109 
					73 110 30 
					111 110 73 
					96 1 108 
					96 108 97 
					29 51 50 
					20 24 23 
					115 114 113 
					119 116 117 
					121 120 115 
					122 114 115 
					118 121 119 
					124 98 78 
					126 121 118 
					127 120 121 
					122 120 127 
					129 128 122 
					127 131 130 
					126 132 131 
					125 133 132 
					124 133 125 
					135 134 133 
					136 132 133 
					130 131 132 
					137 129 130 
					136 138 137 
					134 138 136 
					123 139 135 
					141 140 135 
					138 134 135 
					142 138 140 
					143 137 138 
					144 129 137 
					145 143 142 
					147 144 143 
					146 149 147 
					97 147 148 
					128 144 147 
					151 13 11 
					152 15 13 
					154 153 15 
					104 155 153 
					156 99 26 
					157 100 99 
					107 100 157 
					157 158 107 
					159 90 158 
					156 160 159 
					101 161 160 
					102 162 161 
					103 163 162 
					104 164 163 
					154 165 164 
					152 166 165 
					150 168 167 
					141 139 168 
					169 168 139 
					170 167 168 
					171 166 167 
					172 165 166 
					173 164 165 
					174 163 164 
					175 162 163 
					176 161 162 
					177 160 161 
					179 90 159 
					178 88 89 
					177 87 88 
					176 86 87 
					175 85 86 
					174 84 85 
					83 82 172 
					82 81 171 
					123 78 79 
					62 83 82 
					152 151 167 
					80 170 169 
					171 170 80 
					60 61 84 
					174 173 83 
					179 89 29 
					90 179 29 
					27 91 158 
					91 158 90 
					177 178 159 
					9 141 150 
					92 93 142 
					93 146 145 
					94 146 93 
					97 149 146 
					148 149 97 
					92 140 141 
					69 68 77 
					117 77 98 
					118 98 124 
					69 117 116 
					74 72 71 
					74 116 119 
					119 115 76 
					76 115 114 
					76 113 111 
					109 128 97 
					110 122 128 
					111 113 114 
					128 129 144 
					149 148 147 
					3 1 0 
					5 3 0 
					7 4 5 
					9 6 7 
					11 8 9 
					13 10 11 
					15 12 13 
					17 14 15 
					19 16 17 
					21 18 19 
					24 25 23 
					31 2 3 
					4 31 3 
					6 32 4 
					8 33 6 
					10 34 8 
					12 35 10 
					14 36 12 
					16 37 14 
					18 38 16 
					20 40 18 
					23 41 20 
					25 42 23 
					45 43 25 
					47 44 45 
					49 46 47 
					28 48 49 
					52 50 51 
					53 48 52 
					54 46 53 
					55 44 54 
					56 43 55 
					58 42 57 
					59 41 58 
					58 60 59 
					57 61 58 
					63 39 62 
					64 38 63 
					65 37 64 
					66 36 65 
					67 35 66 
					68 34 67 
					69 33 68 
					71 31 32 
					70 72 30 
					74 30 72 
					76 73 74 
					67 77 68 
					66 78 67 
					65 79 66 
					64 80 65 
					64 81 63 
					61 83 60 
					56 84 61 
					55 85 56 
					54 86 55 
					53 87 54 
					52 88 53 
					28 91 29 
					5 92 7 
					0 93 5 
					95 94 0 
					62 63 83 
					24 101 26 
					22 102 24 
					19 103 21 
					17 104 19 
					15 105 17 
					99 25 26 
					100 45 99 
					107 47 100 
					107 49 27 
					109 30 110 
					1 109 108 
					111 73 76 
					115 113 112 
					119 117 118 
					121 115 119 
					122 115 120 
					124 78 123 
					126 118 125 
					127 121 126 
					129 122 127 
					127 130 129 
					126 131 127 
					125 132 126 
					135 133 124 
					136 133 134 
					130 132 136 
					137 130 136 
					123 135 124 
					141 135 139 
					138 135 140 
					143 138 142 
					144 137 143 
					147 143 145 
					146 147 145 
					128 147 97 
					151 11 150 
					152 13 151 
					154 15 152 
					104 153 154 
					156 26 101 
					157 99 156 
					159 158 157 
					156 159 157 
					101 160 156 
					102 161 101 
					103 162 102 
					104 163 103 
					154 164 104 
					152 165 154 
					150 167 151 
					141 168 150 
					169 139 123 
					170 168 169 
					171 167 170 
					172 166 171 
					173 165 172 
					174 164 173 
					175 163 174 
					176 162 175 
					177 161 176 
					179 159 178 
					178 89 179 
					177 88 178 
					176 87 177 
					175 86 176 
					174 85 175 
					173 83 172 
					172 82 171 
					123 79 169 
					62 82 63 
					152 167 166 
					80 169 79 
					81 80 171 
					60 84 83 
					84 83 174 
					107 27 158 
					177 159 160 
					9 150 11 
					92 142 140 
					93 145 142 
					97 146 94 
					92 141 9 
					69 77 117 
					117 98 118 
					118 124 125 
					69 116 71 
					74 71 116 
					119 76 74 
					76 114 113 
					76 111 75 
					109 97 108 
					110 128 109 
					111 114 122 
					71 32 69 
					75 76 111 
					111 122 110 
					111 122 110 
				</DataArray>
				<DataArray type="Int32" Name="offsets" format="ascii">
					3 6 9 12 15 18 21 24 27 30 33 36 39 42 45 48 51 54 57 60 63 66 69 72 75 78 81 84 87 90 93 96 99 102 105 108 111 114 117 120 123 126 129 132 135 138 141 144 147 150 153 156 159 162 165 168 171 174 177 180 183 186 189 192 195 198 201 204 207 210 213 216 219 222 225 228 231 234 237 240 243 246 249 252 255 258 261 264 267 270 273 276 279 282 285 288 291 294 297 300 303 306 309 312 315 318 321 324 327 330 333 336 339 342 345 348 351 354 357 360 363 366 369 372 375 378 381 384 387 390 393 396 399 402 405 408 411 414 417 420 423 426 429 432 435 438 441 444 447 450 453 456 459 462 465 468 471 474 477 480 483 486 489 492 495 498 501 504 507 510 513 516 519 522 525 528 531 534 537 540 543 546 549 552 555 558 561 564 567 570 573 576 579 582 585 588 591 594 597 600 603 606 609 612 615 618 621 624 627 630 633 636 639 642 645 648 651 654 657 660 663 666 669 672 675 678 681 684 687 690 693 696 699 702 705 708 711 714 717 720 723 726 729 732 735 738 741 744 747 750 753 756 759 762 765 768 771 774 777 780 783 786 789 792 795 798 801 804 807 810 813 816 819 822 825 828 831 834 837 840 843 846 849 852 855 858 861 864 867 870 873 876 879 882 885 888 891 894 897 900 903 906 909 912 915 918 921 924 927 930 933 936 939 942 945 948 951 954 957 960 963 966 969 972 975 978 981 984 987 990 993 996 999 1002 1005 1008 1011 1014 1017 1020 1023 1026 1029 1032 1035 1038 1041 1044 1047 1050 1053 1056 1059 1062 1065 1068 1071 1074 1077 
				</DataArray>
			</Polys>
		</Piece>
	</PolyData>
</VTKFile>
