<?xml version="1.0"?>
<VTKFile type="PolyData" version="0.1" byte_order="LittleEndian" compressor="vtkZLibDataCompressor">
	<PolyData>
		<Piece NumberOfPoints="154" NumberOfVerts="0" NumberOfLines="0" NumberOfStrips="0" NumberOfPolys="304">
		<PointData Normals="Normals">
		<DataArray type="Float32" Name="Normals" NumberOfComponents="3" format="ascii">
			-0.071191 -0.996942 -0.032229
			-0.664998 -0.693424 -0.277382
			-0.085039 -0.983439 -0.160048
			 0.710292 -0.703563 -0.022006
			-0.444829 -0.894823 -0.037667
			 0.163346 -0.957559  0.237485
			 0.647590 -0.752001  0.122970
			-0.126241 -0.913521 -0.386708
			-0.459626 -0.648185 -0.607124
			-0.721660 -0.643102 -0.256176
			-0.721602 -0.502004 -0.476741
			 0.752297 -0.626192 -0.204776
			 0.938670 -0.291371  0.184392
			 0.983156 -0.174840 -0.053248
			-0.295814 -0.941665  0.160504
			-0.586739 -0.809124  0.032486
			 0.778207 -0.523466  0.346954
			 0.403056 -0.747936  0.527387
			-0.089671 -0.906306  0.413000
			 0.682731 -0.589566 -0.431614
			 0.212185 -0.727417 -0.652565
			 0.131143 -0.572338 -0.809463
			-0.392826 -0.497751 -0.773261
			-0.938895 -0.316709 -0.134801
			-0.929605 -0.108725 -0.352154
			-0.689795 -0.202633 -0.695070
			 0.923517 -0.155888 -0.350450
			 0.968187 -0.135028  0.210667
			 0.999743  0.022548 -0.002278
			-0.333751 -0.865905  0.372583
			-0.824055 -0.508271  0.250189
			 0.797777 -0.423446  0.429238
			-0.052940 -0.765307  0.641484
			 0.342958 -0.640072  0.687523
			 0.694915 -0.330437 -0.638674
			 0.309197 -0.359333 -0.880498
			-0.984800 -0.160499 -0.066399
			-0.954870 -0.046155 -0.293417
			-0.928196  0.055323 -0.367955
			-0.030332 -0.298708 -0.953863
			-0.822420 -0.082808 -0.562822
			 0.835680 -0.166529 -0.523361
			 0.967489  0.052284 -0.247448
			 0.996188  0.071263 -0.050311
			 0.979180 -0.150957  0.135712
			-0.446222 -0.612162  0.652797
			-0.906894 -0.210725  0.364882
			 0.525574 -0.551839  0.647492
			 0.880453 -0.337108  0.333408
			-0.004431 -0.620920  0.783861
			 0.775814 -0.178169 -0.605284
			-0.940692 -0.037286 -0.337208
			-0.994533 -0.092605  0.048265
			-0.938771  0.070971 -0.337153
			-0.385928 -0.152225 -0.909883
			 0.267821 -0.120494 -0.955905
			-0.628885  0.018811 -0.777271
			 0.951854  0.023994 -0.305613
			 0.962670 -0.084528 -0.257140
			 0.996944 -0.057605 -0.052761
			 0.981904 -0.131049  0.136715
			-0.543320 -0.342841  0.766331
			-0.876586 -0.042579  0.479358
			-0.064208 -0.499120  0.864151
			 0.840826 -0.330109  0.428998
			 0.428528 -0.472157  0.770345
			 0.775354 -0.121226 -0.619782
			-0.999124 -0.009390 -0.040784
			-0.874479  0.037772 -0.483590
			-0.937914  0.050071 -0.343235
			-0.956952  0.029210  0.288772
			-0.914875  0.014665 -0.403471
			-0.941600 -0.009680 -0.336593
			 0.239369  0.026542 -0.970566
			-0.437833  0.167721 -0.883274
			 0.979074  0.004089 -0.203463
			 0.818933  0.031492 -0.573025
			 0.997502 -0.063353 -0.031248
			 0.981469 -0.106952  0.158997
			-0.581459 -0.136945  0.801967
			-0.790452  0.022713  0.612102
			-0.123025 -0.272444  0.954274
			 0.332546 -0.304536  0.892564
			 0.808219 -0.192281  0.556605
			-0.997987 -0.063414 -0.000251
			-0.915480 -0.066765 -0.396786
			-0.925475 -0.032560 -0.377406
			-0.909999 -0.005756  0.414570
			-0.787343  0.191150 -0.586133
			 0.319385  0.261468 -0.910839
			 0.035340  0.431126 -0.901599
			 0.980665  0.135865 -0.140844
			 0.795930  0.305405 -0.522707
			 0.994251  0.088969  0.059580
			 0.950554  0.074712  0.301437
			-0.464298 -0.121990  0.877237
			-0.757188 -0.009527  0.653128
			 0.127540 -0.150887  0.980289
			 0.684589  0.015543  0.728764
			-0.950642 -0.085362  0.298316
			-0.987403 -0.125737 -0.096047
			-0.897593 -0.089979 -0.431544
			-0.893967  0.153698 -0.420951
			-0.917655 -0.006503 -0.397325
			-0.777606  0.004234  0.628737
			-0.289758  0.521432 -0.802589
			 0.522434  0.531764 -0.666551
			 0.961771  0.266905  0.061307
			 0.837123  0.443871 -0.319693
			 0.934072  0.334835 -0.124074
			 0.916227  0.289383  0.277103
			 0.676923  0.241562  0.695286
			-0.516250  0.026811  0.856018
			 0.053031  0.128644  0.990272
			-0.938167 -0.167340  0.303051
			-0.982980 -0.121036 -0.138207
			-0.877978 -0.003391 -0.478689
			-0.908204 -0.034100 -0.417136
			-0.363093  0.659246 -0.658451
			-0.803900  0.258881 -0.535468
			-0.451067  0.116774  0.884818
			-0.716220 -0.202674  0.667796
			-0.458557  0.066102  0.886203
			 0.469716  0.674806 -0.569214
			 0.765542  0.639796  0.067864
			 0.761729  0.590487  0.266634
			 0.745467  0.638465 -0.191422
			 0.580815  0.534256  0.614186
			 0.063243  0.298983  0.952160
			-0.757191 -0.243618  0.606063
			-0.926020 -0.310755  0.214287
			-0.949564 -0.143001 -0.279069
			-0.705544  0.332040 -0.626065
			 0.450408  0.822111 -0.348233
			 0.013355  0.876538 -0.481147
			 0.010935  0.458548  0.888602
			-0.474562  0.071208  0.877337
			 0.114237  0.559484  0.820931
			 0.505297  0.842599  0.186285
			 0.564291  0.823952 -0.051758
			 0.458034  0.773462  0.438135
			-0.865267  0.282635  0.414043
			-0.623549  0.472741  0.622658
			-0.893738  0.441125  0.081492
			-0.754793  0.591468 -0.283642
			-0.859703  0.483358 -0.165153
			-0.236329  0.883822 -0.403742
			 0.439372  0.884895 -0.154640
			 0.032586  0.703904  0.709547
			 0.535241  0.772445  0.341828
			 0.554822  0.818605  0.148522
			 0.017389  0.977426  0.210563
			-0.004721  0.988953  0.148157
			-0.070005  0.996323 -0.049385
		</DataArray>
	</PointData>
	<Points>
		<DataArray type="Float32" NumberOfComponents="3" format="ascii">
			 0.146615 -0.420265 -0.117588
			 0.143737 -0.417537 -0.122414
			 0.145502 -0.420069 -0.122342
			 0.150790 -0.418026 -0.119843
			 0.143149 -0.418684 -0.116472
			 0.147799 -0.420033 -0.115505
			 0.148936 -0.419436 -0.116035
			 0.146274 -0.419346 -0.124853
			 0.146148 -0.415475 -0.128911
			 0.140499 -0.416106 -0.119572
			 0.142456 -0.414178 -0.126575
			 0.151150 -0.417224 -0.124153
			 0.151784 -0.414798 -0.116108
			 0.152339 -0.413890 -0.120542
			 0.143846 -0.418827 -0.113356
			 0.140271 -0.417219 -0.112752
			 0.149368 -0.416593 -0.111427
			 0.147443 -0.417721 -0.109738
			 0.145549 -0.418436 -0.110745
			 0.149644 -0.417528 -0.126744
			 0.148361 -0.418028 -0.127324
			 0.147775 -0.414527 -0.130299
			 0.145406 -0.412086 -0.131615
			 0.138197 -0.414569 -0.114576
			 0.139939 -0.412612 -0.122426
			 0.144658 -0.408986 -0.132392
			 0.151309 -0.413680 -0.125134
			 0.151473 -0.412092 -0.112869
			 0.152425 -0.410476 -0.120862
			 0.141315 -0.417127 -0.110155
			 0.138658 -0.415155 -0.109196
			 0.149241 -0.413830 -0.108008
			 0.144420 -0.416110 -0.107465
			 0.147051 -0.415016 -0.106744
			 0.148615 -0.414220 -0.129788
			 0.147162 -0.411183 -0.132309
			 0.137914 -0.411597 -0.113049
			 0.139057 -0.410231 -0.118758
			 0.141982 -0.407911 -0.125418
			 0.146722 -0.407868 -0.133579
			 0.144228 -0.405806 -0.132724
			 0.149282 -0.410501 -0.130388
			 0.152035 -0.410038 -0.125025
			 0.151777 -0.407647 -0.119490
			 0.151781 -0.408787 -0.111773
			 0.140012 -0.414842 -0.107134
			 0.138462 -0.412126 -0.107783
			 0.148105 -0.411548 -0.104443
			 0.150089 -0.410354 -0.106398
			 0.144888 -0.412987 -0.104640
			 0.148738 -0.407134 -0.132332
			 0.137910 -0.407655 -0.117208
			 0.137194 -0.408699 -0.112370
			 0.142598 -0.404277 -0.125595
			 0.145508 -0.405012 -0.134146
			 0.147273 -0.404179 -0.134324
			 0.145068 -0.401923 -0.133888
			 0.150404 -0.406969 -0.128309
			 0.150790 -0.403510 -0.128006
			 0.152026 -0.404391 -0.118241
			 0.151595 -0.406046 -0.108386
			 0.140696 -0.411563 -0.104701
			 0.138228 -0.408981 -0.107274
			 0.145138 -0.409896 -0.102274
			 0.150141 -0.407417 -0.103601
			 0.148525 -0.408381 -0.102066
			 0.148928 -0.403607 -0.133095
			 0.137200 -0.405185 -0.113611
			 0.140179 -0.402881 -0.119994
			 0.137734 -0.404507 -0.116545
			 0.138035 -0.405584 -0.108342
			 0.144175 -0.399210 -0.132491
			 0.142185 -0.401349 -0.124168
			 0.147629 -0.400676 -0.134422
			 0.145484 -0.398407 -0.133882
			 0.151237 -0.400084 -0.127302
			 0.149362 -0.400088 -0.133052
			 0.152322 -0.401037 -0.117510
			 0.151650 -0.403022 -0.106162
			 0.141943 -0.407925 -0.102957
			 0.139869 -0.405218 -0.105160
			 0.145979 -0.406428 -0.100636
			 0.148399 -0.405334 -0.100554
			 0.150310 -0.404293 -0.101705
			 0.137135 -0.402020 -0.112713
			 0.138129 -0.400974 -0.116722
			 0.142157 -0.397981 -0.124528
			 0.138011 -0.402211 -0.108721
			 0.144398 -0.395827 -0.132186
			 0.147476 -0.397485 -0.133966
			 0.146417 -0.394784 -0.133011
			 0.152033 -0.397269 -0.121381
			 0.149368 -0.396884 -0.132201
			 0.152571 -0.398151 -0.113758
			 0.151328 -0.400151 -0.104075
			 0.144533 -0.403720 -0.100908
			 0.141110 -0.401564 -0.103541
			 0.147713 -0.402485 -0.099442
			 0.149789 -0.401372 -0.100563
			 0.136969 -0.399098 -0.110488
			 0.136670 -0.398844 -0.113130
			 0.137863 -0.397685 -0.117282
			 0.143518 -0.393324 -0.129318
			 0.142234 -0.394599 -0.124666
			 0.140634 -0.398310 -0.104517
			 0.145224 -0.392235 -0.131426
			 0.147923 -0.394264 -0.131877
			 0.151831 -0.395107 -0.114122
			 0.149490 -0.394013 -0.128741
			 0.151445 -0.394125 -0.121956
			 0.150953 -0.396853 -0.105034
			 0.149340 -0.398245 -0.100595
			 0.144356 -0.400537 -0.100471
			 0.147550 -0.399200 -0.099657
			 0.136805 -0.395843 -0.110508
			 0.136316 -0.395557 -0.113948
			 0.140367 -0.392613 -0.121358
			 0.136846 -0.395049 -0.115746
			 0.144521 -0.389612 -0.128831
			 0.143227 -0.390366 -0.127723
			 0.144290 -0.397149 -0.101092
			 0.140149 -0.395181 -0.104674
			 0.143460 -0.394099 -0.101776
			 0.146318 -0.391814 -0.130894
			 0.150870 -0.392243 -0.113961
			 0.150195 -0.393580 -0.107005
			 0.149667 -0.391461 -0.122955
			 0.148388 -0.395250 -0.101292
			 0.146880 -0.396091 -0.100251
			 0.138003 -0.392659 -0.105848
			 0.136254 -0.392914 -0.109510
			 0.136022 -0.392402 -0.113688
			 0.142077 -0.387972 -0.124963
			 0.145747 -0.389199 -0.127841
			 0.143106 -0.387525 -0.124814
			 0.145083 -0.393403 -0.101472
			 0.141138 -0.391658 -0.102942
			 0.142596 -0.391007 -0.102851
			 0.147417 -0.391125 -0.109681
			 0.147242 -0.389343 -0.122260
			 0.146620 -0.392410 -0.103446
			 0.135668 -0.390089 -0.107931
			 0.138816 -0.389109 -0.104845
			 0.135194 -0.389936 -0.110422
			 0.138943 -0.386707 -0.120690
			 0.136245 -0.388638 -0.115959
			 0.140077 -0.386096 -0.121324
			 0.144411 -0.387246 -0.122677
			 0.140780 -0.388315 -0.104150
			 0.143852 -0.390043 -0.105492
			 0.144357 -0.388970 -0.111187
			 0.141323 -0.387833 -0.105738
			 0.141363 -0.386357 -0.115597
			 0.141382 -0.385618 -0.120530
		</DataArray>
	</Points>
			<Polys>
				<DataArray type="Int32" Name="connectivity" format="ascii">
					0 1 2 
					3 0 2 
					4 1 0 
					5 4 0 
					6 5 0 
					3 6 0 
					2 1 7 
					1 8 7 
					4 9 1 
					1 10 8 
					9 10 1 
					11 3 2 
					11 2 7 
					12 6 3 
					3 13 12 
					13 3 11 
					14 4 5 
					15 9 4 
					4 14 15 
					5 16 17 
					17 18 5 
					18 14 5 
					5 6 16 
					6 12 16 
					19 11 7 
					7 8 20 
					20 19 7 
					8 21 20 
					8 22 21 
					10 22 8 
					15 23 9 
					9 24 10 
					23 24 9 
					10 25 22 
					24 25 10 
					26 11 19 
					11 26 13 
					27 16 12 
					12 28 27 
					28 12 13 
					28 13 26 
					18 29 14 
					29 15 14 
					15 29 30 
					30 23 15 
					17 16 31 
					16 27 31 
					17 32 18 
					17 31 33 
					33 32 17 
					32 29 18 
					19 34 26 
					34 19 20 
					20 21 34 
					35 34 21 
					22 35 21 
					22 25 35 
					30 36 23 
					23 37 24 
					36 37 23 
					24 38 25 
					37 38 24 
					25 39 35 
					25 40 39 
					38 40 25 
					41 26 34 
					26 42 28 
					26 41 42 
					43 27 28 
					27 43 44 
					31 27 44 
					43 28 42 
					29 32 45 
					45 30 29 
					30 45 46 
					46 36 30 
					33 31 47 
					31 48 47 
					31 44 48 
					33 49 32 
					49 45 32 
					47 49 33 
					34 35 41 
					41 35 50 
					39 50 35 
					36 51 37 
					36 46 52 
					52 51 36 
					38 37 51 
					38 53 40 
					51 53 38 
					39 40 54 
					50 39 55 
					39 54 55 
					40 56 54 
					40 53 56 
					57 42 41 
					41 50 57 
					42 57 43 
					43 58 59 
					43 57 58 
					59 44 43 
					44 59 60 
					60 48 44 
					45 49 61 
					61 46 45 
					61 62 46 
					46 62 52 
					47 63 49 
					47 64 65 
					65 63 47 
					47 48 64 
					48 60 64 
					63 61 49 
					58 57 50 
					50 66 58 
					55 66 50 
					52 67 51 
					51 68 53 
					67 69 51 
					69 68 51 
					62 70 52 
					70 67 52 
					53 71 56 
					72 71 53 
					53 68 72 
					54 56 55 
					73 66 55 
					56 73 55 
					73 56 74 
					56 71 74 
					75 59 58 
					58 76 75 
					58 66 76 
					59 75 77 
					77 60 59 
					60 77 78 
					64 60 78 
					63 79 61 
					79 62 61 
					79 80 62 
					80 70 62 
					63 65 81 
					81 79 63 
					65 64 82 
					64 83 82 
					64 78 83 
					82 81 65 
					73 76 66 
					84 67 70 
					69 67 84 
					69 85 68 
					68 86 72 
					85 86 68 
					84 85 69 
					80 87 70 
					87 84 70 
					72 86 71 
					88 74 71 
					86 88 71 
					76 73 89 
					73 74 89 
					90 89 74 
					88 90 74 
					91 77 75 
					75 92 91 
					92 75 76 
					89 92 76 
					77 91 93 
					93 78 77 
					78 93 94 
					94 83 78 
					81 95 79 
					95 80 79 
					95 96 80 
					96 87 80 
					82 95 81 
					82 83 97 
					97 95 82 
					83 94 98 
					83 98 97 
					87 99 84 
					100 85 84 
					99 100 84 
					85 101 86 
					100 101 85 
					86 102 88 
					101 103 86 
					86 103 102 
					96 104 87 
					104 99 87 
					88 105 90 
					88 102 105 
					90 92 89 
					90 106 92 
					90 105 106 
					107 93 91 
					108 91 92 
					91 109 107 
					91 108 109 
					92 106 108 
					93 107 110 
					94 93 110 
					94 110 111 
					98 94 111 
					97 112 95 
					112 96 95 
					104 96 112 
					97 98 113 
					113 112 97 
					111 113 98 
					99 104 114 
					100 99 114 
					101 100 115 
					100 114 115 
					101 116 103 
					115 117 101 
					117 116 101 
					102 118 105 
					119 118 102 
					119 102 103 
					116 119 103 
					120 104 112 
					121 114 104 
					122 121 104 
					104 120 122 
					105 123 106 
					105 118 123 
					123 108 106 
					107 124 125 
					125 110 107 
					124 107 109 
					108 123 126 
					126 109 108 
					109 126 124 
					110 125 127 
					111 110 127 
					111 127 128 
					113 111 128 
					113 120 112 
					128 120 113 
					129 130 114 
					130 131 114 
					129 114 121 
					115 114 131 
					117 115 131 
					116 132 119 
					131 132 116 
					116 117 131 
					118 133 123 
					118 134 133 
					119 134 118 
					119 132 134 
					128 135 120 
					135 122 120 
					136 129 121 
					136 121 122 
					135 137 122 
					137 136 122 
					133 126 123 
					138 125 124 
					124 139 138 
					139 124 126 
					140 127 125 
					125 138 140 
					126 133 139 
					135 128 127 
					140 135 127 
					141 130 129 
					136 142 129 
					142 141 129 
					130 143 131 
					141 143 130 
					131 144 132 
					131 143 145 
					131 145 144 
					146 134 132 
					132 144 146 
					134 139 133 
					134 147 139 
					134 146 147 
					137 135 140 
					137 148 136 
					136 148 142 
					140 149 137 
					148 137 149 
					149 140 138 
					150 138 139 
					138 150 149 
					139 147 150 
					151 143 141 
					151 141 142 
					151 142 148 
					143 152 145 
					151 152 143 
					144 152 153 
					144 153 146 
					145 152 144 
					146 153 147 
					152 150 147 
					153 152 147 
					149 151 148 
					151 149 150 
					152 151 150 
				</DataArray>
				<DataArray type="Int32" Name="offsets" format="ascii">
					3 6 9 12 15 18 21 24 27 30 33 36 39 42 45 48 51 54 57 60 63 66 69 72 75 78 81 84 87 90 93 96 99 102 105 108 111 114 117 120 123 126 129 132 135 138 141 144 147 150 153 156 159 162 165 168 171 174 177 180 183 186 189 192 195 198 201 204 207 210 213 216 219 222 225 228 231 234 237 240 243 246 249 252 255 258 261 264 267 270 273 276 279 282 285 288 291 294 297 300 303 306 309 312 315 318 321 324 327 330 333 336 339 342 345 348 351 354 357 360 363 366 369 372 375 378 381 384 387 390 393 396 399 402 405 408 411 414 417 420 423 426 429 432 435 438 441 444 447 450 453 456 459 462 465 468 471 474 477 480 483 486 489 492 495 498 501 504 507 510 513 516 519 522 525 528 531 534 537 540 543 546 549 552 555 558 561 564 567 570 573 576 579 582 585 588 591 594 597 600 603 606 609 612 615 618 621 624 627 630 633 636 639 642 645 648 651 654 657 660 663 666 669 672 675 678 681 684 687 690 693 696 699 702 705 708 711 714 717 720 723 726 729 732 735 738 741 744 747 750 753 756 759 762 765 768 771 774 777 780 783 786 789 792 795 798 801 804 807 810 813 816 819 822 825 828 831 834 837 840 843 846 849 852 855 858 861 864 867 870 873 876 879 882 885 888 891 894 897 900 903 906 909 912 
				</DataArray>
			</Polys>
		</Piece>
	</PolyData>
</VTKFile>
