<?xml version="1.0"?>
<VTKFile type="PolyData" version="0.1" byte_order="LittleEndian" compressor="vtkZLibDataCompressor">
	<PolyData>
		<Piece NumberOfPoints="603" NumberOfVerts="0" NumberOfLines="0" NumberOfStrips="0" NumberOfPolys="1202">
		<PointData Normals="Normals">
		<DataArray type="Float32" Name="Normals" NumberOfComponents="3" format="ascii">
			-0.618776 -0.515314 -0.592931
			 0.365600 -0.615899 -0.697857
			-0.132057 -0.915507 -0.380011
			-0.682245 -0.570630 -0.457081
			-0.368895 -0.645118 -0.669133
			-0.744307 -0.427671 -0.512937
			 0.945894 -0.321714  0.042258
			 0.796585 -0.380113 -0.470070
			 0.963725  0.260943  0.056061
			 0.762893 -0.594969  0.252993
			-0.287592 -0.947565  0.139328
			-0.705126 -0.696787  0.131470
			-0.799275 -0.431750 -0.418032
			-0.493919 -0.714351 -0.495729
			-0.838321 -0.347329 -0.420215
			 0.929452  0.103002  0.354273
			 0.992591  0.117848  0.029571
			-0.046471 -0.691048 -0.721313
			 0.793747 -0.331464 -0.509998
			 0.999208  0.003871  0.039614
			 0.983820  0.060509  0.168635
			 0.196707 -0.572963  0.795625
			 0.435300 -0.170098  0.884070
			-0.270621 -0.458480  0.846499
			-0.706129 -0.551428  0.444194
			-0.854150 -0.512713 -0.086909
			-0.774894 -0.298297 -0.557278
			-0.627597 -0.488675 -0.606069
			-0.895013 -0.149200 -0.420347
			-0.881987 -0.341737 -0.324522
			 0.681975 -0.176321  0.709804
			 0.999255  0.038510 -0.002593
			-0.129851 -0.350220 -0.927623
			 0.676257 -0.258551 -0.689803
			 0.997183  0.044840 -0.060123
			 0.782276 -0.233352  0.577573
			 0.053116 -0.361802  0.930741
			-0.303146 -0.388485  0.870162
			-0.549126 -0.463566  0.695390
			-0.797843 -0.307553 -0.518515
			-0.727777 -0.557978  0.398749
			-0.579376 -0.304092 -0.756208
			-0.788250 -0.140102 -0.599194
			-0.923999 -0.305150 -0.230455
			-0.839577 -0.359531 -0.407245
			 0.209397 -0.297715  0.931407
			 0.998844  0.041738  0.023853
			 0.965523 -0.098879 -0.240807
			 0.944776 -0.274943  0.178339
			-0.134582 -0.214457 -0.967417
			 0.992035 -0.116450  0.048018
			 0.710576 -0.280716 -0.645198
			 0.009118 -0.212344  0.977152
			 0.498138 -0.236089  0.834338
			-0.228008 -0.325173  0.917755
			-0.361766 -0.355965  0.861635
			-0.921034 -0.287299 -0.262973
			-0.364908 -0.310042  0.877904
			-0.781101 -0.337210  0.525520
			-0.519643 -0.199967 -0.830653
			-0.972301 -0.058452 -0.226304
			-0.862748 -0.188657 -0.469122
			-0.951514 -0.269230 -0.148786
			-0.611626 -0.127033 -0.780881
			-0.919558 -0.240171 -0.311015
			 0.981665 -0.190067 -0.014404
			 0.914601 -0.269278 -0.301652
			 0.894738 -0.357125 -0.268154
			 0.938155 -0.315427  0.142729
			 0.829476 -0.274270  0.486565
			 0.569468 -0.269078  0.776726
			 0.009026 -0.143553 -0.989602
			 0.920578 -0.214065 -0.326670
			 0.049878 -0.270665  0.961380
			-0.331030 -0.268436  0.904633
			-0.799230 -0.129878  0.586824
			-0.982727  0.135705 -0.125826
			-0.947932  0.085416 -0.306803
			-0.989622 -0.094173 -0.108534
			-0.999971 -0.007486 -0.001134
			 0.003563 -0.220470 -0.975387
			-0.541486 -0.066135 -0.838105
			-0.859539 -0.000439 -0.511070
			 0.799088 -0.545165 -0.253483
			 0.917355 -0.397652  0.018217
			 0.859410 -0.492277 -0.138124
			 0.924796 -0.356538  0.132788
			 0.784292 -0.386844  0.485013
			 0.503313 -0.324016  0.801056
			 0.060008 -0.295572  0.953434
			 0.710681 -0.337468 -0.617291
			 0.918752 -0.393145 -0.036494
			-0.436462 -0.151797  0.886825
			-0.760152 -0.044616  0.648211
			-0.933651  0.250088 -0.256422
			-0.918263  0.103863  0.382108
			-0.987058  0.160325 -0.003430
			-0.922629  0.243658 -0.298977
			-0.867934  0.034482 -0.495481
			-0.996038  0.085316  0.025100
			 0.274733 -0.413819 -0.867915
			-0.184035 -0.380171 -0.906422
			 0.804063 -0.579424 -0.133230
			 0.744745 -0.654525 -0.130198
			 0.864646 -0.489943  0.111102
			 0.725922 -0.522458  0.447298
			 0.464043 -0.358143  0.810183
			-0.051057 -0.219387  0.974301
			 0.635953 -0.638916 -0.432839
			 0.723309 -0.683684 -0.096953
			-0.504845 -0.032306  0.862605
			-0.966923  0.202679 -0.154859
			-0.826216  0.082377  0.557298
			-0.965757  0.141952 -0.217171
			-0.981266  0.147487 -0.123953
			-0.767708 -0.042113 -0.639415
			 0.228678 -0.710388 -0.665624
			-0.572542 -0.095704 -0.814270
			-0.333316 -0.332854 -0.882104
			 0.766049 -0.579013  0.279127
			 0.714933 -0.698976  0.017453
			 0.371053 -0.614417  0.696284
			 0.043629 -0.304790  0.951420
			 0.404521 -0.786370 -0.466889
			 0.549080 -0.812205 -0.197065
			 0.642459 -0.765791 -0.028463
			-0.454713 -0.102354  0.884737
			-0.942032  0.201961 -0.267933
			-0.905359  0.093381  0.414252
			-0.969927  0.241764  0.028150
			-0.954689  0.198474 -0.221761
			-0.954112  0.134264 -0.267663
			-0.764363 -0.071727 -0.640784
			-0.174138 -0.458129 -0.871662
			-0.541855 -0.114870 -0.832585
			-0.566232 -0.158055 -0.808950
			 0.388731 -0.435801  0.811767
			 0.759680 -0.621521  0.191303
			 0.616620 -0.522404  0.588960
			 0.756126 -0.636872  0.150555
			-0.121386 -0.221437  0.967590
			 0.363321 -0.389997 -0.846109
			 0.290790 -0.405683 -0.866523
			 0.559475 -0.224621 -0.797830
			 0.649564 -0.700485 -0.295615
			 0.666437 -0.735148  0.124176
			-0.571974 -0.108921  0.813008
			-0.983011  0.176219 -0.051354
			-0.996182  0.080371 -0.034073
			-0.973703  0.007576 -0.227696
			-0.958913  0.205000 -0.196116
			-0.679433 -0.100383 -0.726838
			-0.004315  0.173317 -0.984857
			-0.478859 -0.095676 -0.872663
			-0.610833 -0.144118 -0.778533
			-0.006679 -0.223637  0.974650
			 0.433693 -0.519790  0.736022
			 0.725139 -0.548218  0.416689
			 0.839697 -0.487172  0.239941
			 0.805244 -0.547897  0.226695
			 0.650749 -0.708416  0.273262
			 0.080334  0.286870 -0.954595
			 0.597602 -0.787836  0.148952
			 0.659988 -0.751055  0.018214
			 0.342836 -0.576887 -0.741394
			-0.057424 -0.039954 -0.997550
			-0.348893 -0.151740  0.924797
			-0.889175  0.002156  0.457563
			-0.947706  0.319139  0.001924
			-0.997007 -0.077207 -0.004025
			-0.988346  0.151566  0.014137
			-0.898388 -0.120629 -0.422313
			-0.922224  0.363350 -0.132209
			-0.624836  0.222802 -0.748291
			-0.668284 -0.038328 -0.742919
			 0.132679  0.057828 -0.989471
			-0.105991  0.117157 -0.987441
			-0.515777 -0.003077 -0.856718
			-0.670142  0.254646 -0.697183
			-0.070956 -0.166086  0.983555
			 0.482471 -0.384109  0.787199
			 0.805584 -0.431384  0.406132
			 0.823735 -0.504140  0.259430
			 0.713009 -0.645044  0.274839
			 0.582354 -0.722762  0.372126
			 0.584455 -0.741077  0.330481
			-0.073957  0.013241 -0.997174
			 0.703003 -0.681600  0.203000
			 0.702698 -0.707676 -0.073558
			-0.164966 -0.087062 -0.982449
			-0.006221 -0.501630 -0.865060
			 0.424508 -0.753011 -0.502759
			-0.247880  0.031098  0.968292
			-0.485169  0.073914  0.871291
			-0.759582  0.136556  0.635915
			-0.762170  0.388921  0.517530
			-0.880223  0.474353 -0.014011
			-0.971855  0.110787  0.207905
			-0.992188 -0.094737 -0.081171
			-0.925722  0.378002 -0.012354
			-0.859490  0.117362 -0.497498
			-0.699025  0.485821 -0.524731
			-0.592347  0.450144 -0.668203
			-0.576879  0.621964 -0.529501
			 0.081239 -0.196785 -0.977075
			 0.211020 -0.386754 -0.897715
			-0.412127  0.376318 -0.829781
			 0.219433 -0.228419  0.948511
			 0.793349 -0.593979  0.133364
			 0.691023 -0.555317  0.462720
			 0.688274 -0.683567  0.242931
			 0.664776 -0.692286  0.280736
			 0.605496 -0.733685  0.308352
			 0.683878 -0.647253  0.336710
			-0.108552 -0.289176 -0.951101
			 0.788859 -0.606432  0.099710
			 0.778283 -0.535676 -0.327607
			-0.162977 -0.444164 -0.880997
			 0.165177 -0.406769 -0.898474
			-0.209032  0.128042  0.969490
			-0.411384  0.245184  0.877866
			-0.722939  0.418541  0.549711
			-0.900981  0.430940  0.050241
			-0.942098  0.296706  0.156257
			-0.910307  0.326589  0.254323
			-0.886249  0.395344 -0.241385
			-0.918512  0.395292  0.008893
			-0.636100  0.592479 -0.494313
			-0.517212  0.160259 -0.840719
			-0.731853  0.206592 -0.649393
			-0.752957  0.338409 -0.564389
			-0.512750  0.590763 -0.622965
			-0.134409 -0.262910 -0.955412
			 0.185720 -0.435915 -0.880617
			 0.242499 -0.261128 -0.934348
			 0.293913 -0.183713  0.938011
			 0.622787 -0.778486  0.078077
			 0.616090 -0.601089  0.509043
			 0.658170 -0.717764  0.227215
			 0.703827 -0.593340  0.390610
			 0.765880 -0.573250  0.291227
			-0.326819  0.046476 -0.943944
			 0.967886 -0.134513 -0.212376
			 0.928514 -0.371255  0.005658
			 0.460878 -0.100778 -0.881723
			-0.435258  0.057716 -0.898454
			-0.044498 -0.045224  0.997985
			-0.371567  0.168471  0.912993
			-0.753732  0.382724  0.534239
			-0.858170  0.513261  0.010343
			-0.762555  0.635679 -0.120091
			-0.858954  0.478008  0.183592
			-0.909408  0.359009  0.209974
			-0.882528  0.468612  0.039334
			-0.577653  0.660715 -0.479346
			-0.441084  0.050856 -0.896024
			-0.785377  0.336015 -0.519883
			-0.654923  0.420970 -0.627582
			-0.678139  0.488937 -0.548697
			-0.169529  0.004260 -0.985516
			 0.176652  0.099356 -0.979246
			 0.153539  0.078478 -0.985021
			 0.316604 -0.481041  0.817534
			 0.646607 -0.730740  0.218904
			 0.499021 -0.553064  0.667157
			 0.693388 -0.720428 -0.014047
			 0.791783 -0.558894  0.246408
			 0.739356 -0.394492  0.545646
			 0.826360 -0.093647  0.555301
			 0.986846 -0.156678  0.039836
			 0.840852 -0.392151  0.373076
			-0.549275  0.029503 -0.835121
			-0.241042 -0.036870 -0.969814
			 0.972459  0.174487 -0.154525
			 0.960387  0.156545 -0.230543
			-0.363918 -0.089409 -0.927130
			 0.399297 -0.056088 -0.915104
			-0.018292 -0.018997  0.999652
			-0.190854  0.000237  0.981618
			-0.474956  0.190084  0.859235
			-0.839742  0.445983  0.309729
			-0.736963  0.648285 -0.191345
			-0.843360  0.518234  0.142051
			-0.898409  0.420842  0.125514
			-0.440297  0.524450 -0.728760
			-0.720669  0.508809 -0.470903
			-0.782073  0.505817 -0.364021
			-0.576288  0.683139 -0.448568
			-0.036189  0.289028 -0.956636
			 0.203213 -0.272404 -0.940479
			 0.365795 -0.338251  0.867053
			 0.771279 -0.635768  0.030461
			 0.542316 -0.520143  0.659806
			 0.713131 -0.700687 -0.021977
			 0.861690 -0.489298  0.134457
			 0.803109 -0.344357  0.486244
			 0.741998 -0.207249  0.637563
			 0.876226 -0.256703  0.407837
			 0.961033  0.121029  0.248530
			 0.942575  0.303020 -0.140468
			-0.441166 -0.166817 -0.881785
			-0.391827 -0.167788 -0.904610
			-0.139343 -0.222572 -0.964907
			 0.940578  0.324490 -0.100094
			 0.919503  0.253944 -0.300045
			 0.264928  0.022761 -0.964000
			-0.105542 -0.083285  0.990921
			 0.106834 -0.150945  0.982752
			-0.300710 -0.009961  0.953664
			-0.667391  0.274427  0.692300
			-0.900485  0.381116  0.209468
			-0.785903  0.616366  0.049494
			-0.787945  0.559019 -0.258147
			-0.844124  0.529491  0.084219
			-0.575767  0.650035 -0.495931
			-0.757029  0.518057 -0.398151
			-0.569333  0.667164 -0.480367
			-0.849942  0.421734 -0.315815
			-0.505263  0.760076 -0.408649
			-0.176266  0.187378 -0.966344
			 0.054149 -0.113658 -0.992043
			 0.586098 -0.551160  0.593896
			 0.544555 -0.690490  0.476113
			 0.634585 -0.772100  0.034106
			 0.645366 -0.758412  0.091185
			 0.657280 -0.736155 -0.161426
			 0.706339 -0.706396 -0.045709
			 0.772784 -0.423702  0.472526
			 0.761385 -0.648014  0.019249
			 0.898770  0.060107  0.434281
			 0.843671  0.536771  0.009811
			 0.880195  0.474044 -0.023206
			-0.336474 -0.079501 -0.938331
			-0.511953 -0.153746 -0.845143
			-0.159163  0.048680 -0.986051
			 0.716659  0.428795 -0.550031
			-0.016177 -0.131120  0.991235
			-0.169670 -0.093130  0.981091
			 0.212818 -0.238181  0.947617
			-0.446618 -0.072315  0.891798
			-0.682290  0.117062  0.721649
			-0.877237  0.477355 -0.050863
			-0.837839  0.229659  0.495261
			-0.829447  0.557935  0.026957
			-0.906122  0.392235 -0.158414
			-0.750482  0.505094 -0.426212
			-0.648192  0.343192 -0.679755
			-0.510721  0.634821 -0.579798
			-0.757190  0.425239 -0.495817
			-0.722443  0.407198 -0.558808
			-0.243097 -0.018745 -0.969821
			-0.004901 -0.203353 -0.979093
			 0.551137 -0.565566  0.613501
			 0.648709 -0.511983  0.563072
			 0.844332 -0.534814 -0.032822
			 0.849608 -0.502017 -0.161696
			 0.995450 -0.087271  0.038244
			 0.840424  0.541033 -0.031173
			 0.749695  0.633540 -0.191273
			-0.372115 -0.188272 -0.908892
			-0.398648 -0.031722 -0.916555
			 0.185116  0.502132 -0.844746
			-0.171916 -0.029386  0.984673
			 0.028659 -0.113778  0.993093
			-0.490915  0.113232  0.863818
			 0.186137 -0.036129  0.981859
			-0.844338  0.399543  0.357015
			-0.917489  0.374641 -0.133635
			-0.893458  0.431155 -0.125847
			-0.986371  0.134322  0.095025
			-0.993189  0.019755 -0.114824
			-0.833905  0.249283 -0.492403
			-0.797259  0.064160 -0.600218
			-0.517253  0.441004 -0.733461
			-0.489538  0.270579 -0.828939
			-0.848966 -0.187213 -0.494175
			-0.674598 -0.069551 -0.734902
			-0.538267 -0.146531 -0.829938
			-0.089136 -0.216671 -0.972167
			-0.132598 -0.287734 -0.948487
			 0.697510 -0.189843  0.690970
			 0.850555 -0.439894 -0.288184
			 0.844184 -0.452689  0.287098
			 0.952971 -0.287857 -0.094794
			 0.921031  0.349424 -0.172061
			 0.996065  0.029859 -0.083443
			 0.789370  0.582909 -0.192642
			 0.306325  0.454289 -0.836532
			-0.233646 -0.136963 -0.962627
			-0.497848  0.204830  0.842729
			-0.178119  0.039933  0.983198
			-0.002011  0.062579  0.998038
			 0.256880 -0.009904  0.966392
			 0.030189  0.081007  0.996256
			-0.809526  0.453165  0.373242
			-0.958093  0.285985  0.016437
			-0.881154  0.471475 -0.035770
			-0.920666  0.334793  0.200716
			-0.978748  0.201623  0.037421
			-0.769610  0.232622 -0.594632
			-0.765554 -0.120742 -0.631941
			-0.520348 -0.396824 -0.756154
			-0.674328 -0.290035 -0.679089
			-0.464593  0.003993 -0.885515
			-0.120146  0.062637 -0.990778
			-0.230437 -0.194199 -0.953512
			 0.702458 -0.639596 -0.312200
			 0.650591 -0.759401 -0.006469
			 0.457771 -0.482751  0.746591
			 0.966713 -0.082687 -0.242135
			 0.886373  0.428174 -0.176095
			 0.781702  0.526258 -0.334655
			 0.312750  0.227950 -0.922077
			-0.150866 -0.034578 -0.987949
			-0.518377  0.233801  0.822571
			-0.189227  0.036163  0.981267
			 0.029336 -0.051504  0.998242
			 0.086554 -0.068277  0.993905
			-0.831415  0.421658  0.361876
			-0.857786  0.510095  0.063288
			-0.856820  0.514500  0.033888
			-0.807624  0.035571 -0.588624
			-0.717752 -0.179227 -0.672837
			-0.357602 -0.122347 -0.925825
			-0.721166 -0.079666 -0.688167
			-0.094410 -0.266597 -0.959173
			 0.592763 -0.634558 -0.495952
			 0.800583 -0.349616 -0.486657
			 0.618645 -0.526371 -0.583276
			 0.876596 -0.445871 -0.181052
			 0.863155 -0.439513  0.248582
			 0.515334 -0.422384  0.745669
			 0.737963 -0.583743 -0.338607
			 0.285266 -0.343044  0.894955
			 0.918337  0.100642 -0.382790
			 0.912110  0.352666 -0.209004
			 0.493287  0.333992 -0.803192
			 0.812356  0.506392 -0.289214
			-0.477574  0.224966  0.849302
			-0.232119  0.155933  0.960107
			 0.042823  0.031628  0.998582
			-0.054206  0.145074  0.987935
			-0.665324  0.190377  0.721873
			-0.949206  0.303625  0.082581
			-0.774702  0.621646  0.115727
			-0.865659  0.488018 -0.111686
			-0.771609  0.591370  0.234308
			-0.891339  0.453315  0.004593
			-0.860054  0.291368 -0.418822
			-0.786903  0.033351 -0.616174
			-0.392302 -0.248832 -0.885540
			-0.583720 -0.326842 -0.743267
			 0.467962  0.102957 -0.877731
			-0.129077 -0.214038 -0.968260
			 0.844163 -0.140126 -0.517449
			 0.603680 -0.399449 -0.689936
			 0.701133 -0.261314 -0.663421
			 0.834947  0.119197 -0.537267
			 0.964714  0.220484  0.143925
			 0.959571  0.192847 -0.205019
			 0.668744  0.145020  0.729213
			 0.173233  0.020477  0.984668
			 0.864209  0.376568 -0.333675
			 0.828584  0.436462 -0.350643
			-0.269277  0.142155  0.952513
			-0.133765  0.202046  0.970198
			 0.012381  0.120610  0.992623
			 0.046273  0.198645  0.978978
			-0.880543  0.339094  0.331149
			-0.516765  0.125843  0.846828
			-0.845739  0.495082 -0.199048
			-0.792637  0.603008 -0.090045
			-0.756750  0.618537  0.211523
			-0.776236  0.626579  0.069685
			-0.815410  0.565072  0.125697
			-0.894528  0.255677 -0.366673
			-0.830075 -0.150908 -0.536845
			-0.274253 -0.299170 -0.913938
			-0.491588 -0.239746 -0.837175
			-0.807900 -0.207088 -0.551736
			 0.790132  0.518828 -0.326356
			 0.053751  0.013337 -0.998465
			 0.537351  0.395820 -0.744701
			 0.697941  0.712842 -0.068801
			 0.787823  0.397416 -0.470527
			 0.574127 -0.014303 -0.818641
			 0.640886  0.107845 -0.760023
			 0.674663  0.295721 -0.676298
			 0.728576  0.537214 -0.424945
			 0.698361  0.677722  0.230184
			 0.366674  0.386312  0.846353
			 0.773703  0.592758 -0.223655
			-0.137500 -0.000707  0.990502
			 0.105887 -0.120283  0.987076
			 0.037859  0.228359  0.972841
			 0.324683  0.560096  0.762150
			-0.860831  0.495425  0.116294
			-0.556008  0.220761  0.801324
			-0.839465  0.497996 -0.217480
			-0.874937  0.483924  0.017403
			-0.810558  0.544570  0.215496
			-0.791851  0.584450  0.177173
			-0.905108  0.393174 -0.161846
			-0.930717  0.219407 -0.292621
			-0.881107  0.271535 -0.387195
			-0.293566 -0.085347 -0.952121
			-0.868675  0.141604 -0.474713
			-0.620498  0.140507 -0.771519
			 0.666599  0.573133 -0.476618
			 0.153626  0.379060 -0.912531
			 0.535163  0.842816 -0.057113
			 0.495318  0.867659  0.042756
			 0.506840  0.784055 -0.358289
			 0.498681  0.473307 -0.726153
			 0.404887  0.605695 -0.684982
			 0.697299  0.461350 -0.548570
			 0.822522  0.457986 -0.337205
			 0.585686  0.794102  0.162399
			-0.069637 -0.123908  0.989847
			 0.101287  0.050558  0.993572
			 0.022308 -0.032856  0.999211
			 0.163004  0.011732  0.986556
			 0.246875  0.676154  0.694168
			 0.146323  0.349988  0.925256
			-0.871396  0.387238 -0.301190
			-0.876529  0.447245  0.177959
			-0.581139  0.271697  0.767111
			-0.909166  0.350034 -0.225597
			-0.951384  0.307709 -0.013546
			-0.917344  0.370305  0.146133
			-0.883881  0.467625  0.008986
			-0.963282  0.145540 -0.225622
			-0.102322  0.500613 -0.859603
			-0.365072  0.219026 -0.904848
			-0.820625  0.250105 -0.513831
			-0.559110  0.339577 -0.756363
			 0.696105  0.658736 -0.285491
			 0.361818  0.740576 -0.566247
			 0.335662  0.941773  0.019865
			 0.373639  0.927088  0.030014
			 0.345527  0.930770 -0.119489
			 0.594590  0.586996 -0.549453
			 0.291185  0.751582 -0.591892
			 0.235302  0.876826 -0.419297
			 0.793244  0.441869 -0.418947
			-0.160160  0.201586  0.966288
			-0.025621  0.228509  0.973205
			 0.183647  0.409578  0.893599
			 0.276271  0.913092  0.299897
			-0.826017  0.557372  0.083852
			-0.851763  0.517908 -0.079189
			-0.530855  0.548140  0.646325
			-0.988812 -0.042018  0.143130
			-0.991955  0.123761 -0.026616
			-0.828809  0.384361 -0.406623
			 0.537390  0.456603 -0.709032
			-0.106462  0.438456 -0.892425
			-0.397607  0.401031 -0.825277
			 0.665974  0.641318 -0.381038
			 0.195777  0.966438 -0.166340
			 0.457749  0.773637 -0.438122
			-0.264990  0.575851  0.773418
			-0.283996  0.560175  0.778171
			-0.127500  0.691869  0.710677
			-0.198430  0.629169  0.751513
			 0.036863  0.896818  0.440860
			 0.203372  0.977677 -0.052792
			 0.133256  0.981044  0.140699
			-0.665783  0.659142  0.349663
			-0.806820  0.347466  0.477817
			-0.927062  0.332973 -0.172296
			-0.990869  0.004632  0.134747
			-0.855355  0.146065  0.497024
			-0.794897  0.602044 -0.075375
			-0.686268  0.645632 -0.334957
			 0.745883  0.594992 -0.299405
			 0.516703  0.453889 -0.725949
			 0.786374  0.504175 -0.356964
			-0.083269  0.315652 -0.945214
			-0.034581  0.860689 -0.507955
			-0.515092  0.761974 -0.392525
			-0.059393  0.705930  0.705787
			-0.465896  0.644562  0.606202
			 0.327653  0.664882  0.671249
			 0.050169  0.940381  0.336402
			 0.418524  0.896957 -0.142500
			 0.340565  0.937807  0.067325
			-0.492248  0.643107  0.586605
			-0.555906  0.785516  0.271909
			-0.641612  0.656172  0.397205
			-0.353139  0.935437 -0.015839
			-0.810669  0.584991 -0.024544
			-0.447741  0.879289 -0.162415
			-0.707567  0.667403  0.232211
			 0.396384  0.913930 -0.087246
			 0.256511  0.954864 -0.149788
			 0.302321  0.937785 -0.170768
			 0.060826  0.722318  0.688881
			 0.285498  0.769461  0.571332
			 0.345288  0.866073  0.361517
			 0.134392  0.990509 -0.028829
			-0.010536  0.998920 -0.045253
			-0.284075  0.958771 -0.007672
		</DataArray>
	</PointData>
	<Points>
		<DataArray type="Float32" NumberOfComponents="3" format="ascii">
			-0.141795 -0.065533 -0.018910
			-0.138333 -0.067155 -0.020386
			-0.142205 -0.069705 -0.014444
			-0.144613 -0.067443 -0.014251
			-0.140196 -0.064450 -0.021552
			-0.144139 -0.063449 -0.017462
			-0.138657 -0.068291 -0.014227
			-0.139654 -0.064204 -0.021699
			-0.139250 -0.064793 -0.017066
			-0.139502 -0.069265 -0.010370
			-0.142795 -0.070511 -0.010974
			-0.145377 -0.068273 -0.011073
			-0.147179 -0.065541 -0.012247
			-0.141753 -0.061058 -0.026159
			-0.145708 -0.061015 -0.016216
			-0.139824 -0.066155 -0.010148
			-0.140029 -0.061841 -0.017031
			-0.139976 -0.059889 -0.028877
			-0.139615 -0.059760 -0.028762
			-0.139715 -0.060260 -0.025946
			-0.140280 -0.063092 -0.009976
			-0.140417 -0.069748 -0.009695
			-0.140639 -0.066665 -0.009055
			-0.143808 -0.067853 -0.009716
			-0.147315 -0.065894 -0.010417
			-0.148875 -0.063214 -0.010658
			-0.148106 -0.062582 -0.012610
			-0.142878 -0.057795 -0.028888
			-0.146228 -0.057941 -0.016274
			-0.145323 -0.055848 -0.026861
			-0.140864 -0.063569 -0.008509
			-0.140099 -0.058838 -0.015515
			-0.140738 -0.056658 -0.030504
			-0.140028 -0.056361 -0.030547
			-0.139390 -0.056384 -0.028809
			-0.140525 -0.060315 -0.007516
			-0.143005 -0.064517 -0.008055
			-0.144566 -0.065090 -0.008454
			-0.148417 -0.063174 -0.009756
			-0.150426 -0.060539 -0.010854
			-0.150599 -0.060796 -0.009705
			-0.143828 -0.054868 -0.029128
			-0.148017 -0.055859 -0.013424
			-0.146517 -0.054482 -0.018116
			-0.146294 -0.052789 -0.027950
			-0.142411 -0.061212 -0.006742
			-0.140801 -0.055084 -0.020206
			-0.140391 -0.055951 -0.013855
			-0.138949 -0.056239 -0.008465
			-0.139733 -0.052776 -0.031698
			-0.139537 -0.053286 -0.028078
			-0.138971 -0.052479 -0.031608
			-0.142846 -0.058221 -0.006078
			-0.140743 -0.057310 -0.006392
			-0.144072 -0.061822 -0.007166
			-0.148199 -0.060133 -0.007761
			-0.152282 -0.058205 -0.009714
			-0.150427 -0.057738 -0.007932
			-0.152044 -0.058211 -0.009081
			-0.145210 -0.052103 -0.029445
			-0.152521 -0.055141 -0.009010
			-0.148952 -0.052892 -0.013863
			-0.147633 -0.051609 -0.018436
			-0.146237 -0.049280 -0.029231
			-0.147678 -0.050246 -0.026911
			-0.140601 -0.052032 -0.018320
			-0.140251 -0.052313 -0.015721
			-0.137753 -0.051863 -0.012219
			-0.137463 -0.052294 -0.008842
			-0.137740 -0.052524 -0.008124
			-0.139602 -0.053610 -0.006127
			-0.138646 -0.048986 -0.032121
			-0.138065 -0.048794 -0.031842
			-0.142690 -0.054981 -0.005452
			-0.149239 -0.054250 -0.006241
			-0.152340 -0.055208 -0.008140
			-0.152163 -0.051741 -0.008862
			-0.148882 -0.049422 -0.014871
			-0.148473 -0.047648 -0.024739
			-0.148113 -0.048455 -0.018880
			-0.138677 -0.045593 -0.032911
			-0.145146 -0.045434 -0.029991
			-0.147797 -0.046901 -0.027631
			-0.138641 -0.047880 -0.018776
			-0.139932 -0.047602 -0.023719
			-0.135978 -0.047992 -0.011408
			-0.136229 -0.048553 -0.008594
			-0.137197 -0.049200 -0.007054
			-0.140065 -0.050727 -0.004868
			-0.142800 -0.051932 -0.004328
			-0.137654 -0.045221 -0.032631
			-0.137227 -0.045371 -0.030632
			-0.149795 -0.051276 -0.005778
			-0.151762 -0.051854 -0.007160
			-0.151002 -0.048032 -0.008600
			-0.151265 -0.048443 -0.006735
			-0.147359 -0.044966 -0.018286
			-0.148691 -0.046343 -0.013173
			-0.147928 -0.043820 -0.026752
			-0.148720 -0.044695 -0.023369
			-0.137122 -0.041486 -0.034104
			-0.137190 -0.037824 -0.036635
			-0.132440 -0.042761 -0.014533
			-0.136127 -0.042790 -0.023598
			-0.132534 -0.043540 -0.009984
			-0.135593 -0.045482 -0.005732
			-0.138937 -0.047207 -0.003529
			-0.143410 -0.049039 -0.003494
			-0.135820 -0.041159 -0.032847
			-0.135493 -0.041514 -0.029847
			-0.150522 -0.048264 -0.005974
			-0.150685 -0.044834 -0.007317
			-0.150540 -0.044938 -0.006318
			-0.147995 -0.042953 -0.012118
			-0.148062 -0.040702 -0.026111
			-0.146170 -0.039420 -0.029237
			-0.130088 -0.035024 -0.036015
			-0.139382 -0.035606 -0.035631
			-0.133401 -0.032624 -0.038935
			-0.132639 -0.041263 -0.004100
			-0.125743 -0.036075 -0.018666
			-0.135432 -0.042705 -0.002256
			-0.140305 -0.044665 -0.002444
			-0.121460 -0.031496 -0.036038
			-0.120741 -0.031323 -0.035296
			-0.120865 -0.031862 -0.032300
			-0.147970 -0.044197 -0.004421
			-0.149809 -0.041161 -0.007551
			-0.150070 -0.041559 -0.005758
			-0.146586 -0.037321 -0.023048
			-0.148074 -0.039845 -0.011281
			-0.146815 -0.036700 -0.027429
			-0.144972 -0.035409 -0.030739
			-0.127225 -0.029183 -0.044572
			-0.139699 -0.032463 -0.035602
			-0.133235 -0.029144 -0.039764
			-0.132619 -0.038592 -0.000328
			-0.128317 -0.036076 -0.004989
			-0.130478 -0.037523 -0.001522
			-0.120540 -0.029689 -0.024705
			-0.138080 -0.040722 -0.000951
			-0.116430 -0.025196 -0.041985
			-0.125042 -0.028298 -0.044537
			-0.108271 -0.022013 -0.041064
			-0.108075 -0.022020 -0.040528
			-0.113785 -0.025261 -0.034944
			-0.148624 -0.041187 -0.004416
			-0.149324 -0.037963 -0.005846
			-0.145548 -0.034144 -0.019831
			-0.146228 -0.032928 -0.028995
			-0.147369 -0.036341 -0.010902
			-0.144099 -0.031473 -0.032588
			-0.126496 -0.025645 -0.044347
			-0.129237 -0.026903 -0.043501
			-0.133332 -0.025830 -0.040239
			-0.133522 -0.035767  0.000180
			-0.128687 -0.033861  0.000610
			-0.126224 -0.032566 -0.001173
			-0.125263 -0.031937 -0.002622
			-0.117463 -0.025647 -0.021680
			-0.113431 -0.023129 -0.027029
			-0.112650 -0.020536 -0.040991
			-0.101308 -0.016689 -0.036166
			-0.098671 -0.015006 -0.039889
			-0.098609 -0.014690 -0.041674
			-0.101841 -0.016035 -0.041517
			-0.146299 -0.037255 -0.002609
			-0.149375 -0.038222 -0.004385
			-0.148603 -0.034595 -0.004597
			-0.146447 -0.030154 -0.026453
			-0.145953 -0.031324 -0.018036
			-0.145645 -0.029098 -0.030933
			-0.146412 -0.032692 -0.010788
			-0.136881 -0.024415 -0.037708
			-0.143832 -0.027969 -0.033317
			-0.116630 -0.018956 -0.040554
			-0.128849 -0.023432 -0.043712
			-0.130920 -0.024375 -0.043119
			-0.133522 -0.022514 -0.040954
			-0.131959 -0.032028  0.001261
			-0.126588 -0.029849  0.001357
			-0.124723 -0.028829 -0.000228
			-0.118266 -0.023598 -0.016150
			-0.115154 -0.021465 -0.021441
			-0.112156 -0.019866 -0.023743
			-0.100824 -0.014432 -0.028685
			-0.108876 -0.015818 -0.040369
			-0.098456 -0.013125 -0.030770
			-0.092303 -0.008566 -0.043332
			-0.102135 -0.012871 -0.041559
			-0.094169 -0.009195 -0.044153
			-0.092699 -0.008597 -0.044137
			-0.139538 -0.031590 -0.000315
			-0.147247 -0.034341 -0.002754
			-0.148291 -0.034631 -0.003597
			-0.146511 -0.030670 -0.003329
			-0.146682 -0.030441 -0.005161
			-0.145489 -0.027576 -0.019760
			-0.147072 -0.026990 -0.027331
			-0.144268 -0.028524 -0.010877
			-0.146302 -0.026132 -0.030671
			-0.132879 -0.019510 -0.037658
			-0.143969 -0.024813 -0.032913
			-0.136649 -0.021457 -0.035162
			-0.123432 -0.018090 -0.042805
			-0.109379 -0.012666 -0.040872
			-0.128919 -0.020321 -0.042872
			-0.124723 -0.025936  0.002129
			-0.121315 -0.023335 -0.005292
			-0.123181 -0.025197  0.001462
			-0.117764 -0.020881 -0.011458
			-0.113835 -0.018833 -0.014172
			-0.108751 -0.015827 -0.019877
			-0.099384 -0.011160 -0.025040
			-0.104433 -0.010597 -0.041162
			-0.088863 -0.004383 -0.040265
			-0.087156 -0.002079 -0.050131
			-0.089132 -0.002879 -0.050170
			-0.087758 -0.002252 -0.050582
			-0.130651 -0.024915  0.001119
			-0.143939 -0.029834 -0.002008
			-0.143639 -0.026192 -0.003496
			-0.144135 -0.026091 -0.005356
			-0.147158 -0.024158 -0.024811
			-0.143163 -0.023828 -0.016823
			-0.146526 -0.023363 -0.028111
			-0.143010 -0.024569 -0.011884
			-0.145131 -0.022552 -0.029593
			-0.128574 -0.017106 -0.041620
			-0.130470 -0.015096 -0.038595
			-0.134478 -0.017631 -0.033083
			-0.137890 -0.019400 -0.030782
			-0.120700 -0.013331 -0.045049
			-0.116533 -0.011567 -0.045434
			-0.107277 -0.008216 -0.042797
			-0.119903 -0.020662  0.001960
			-0.115663 -0.018035 -0.003537
			-0.117832 -0.019651  0.000946
			-0.111191 -0.014796 -0.012204
			-0.101750 -0.009866 -0.018799
			-0.086637 -0.000907 -0.035905
			-0.102415 -0.006197 -0.042993
			-0.085763  0.001618 -0.049217
			-0.084910  0.000264 -0.038764
			-0.086636  0.001510 -0.050745
			-0.090873 -0.000427 -0.049471
			-0.120794 -0.017790  0.002216
			-0.140786 -0.025251 -0.002121
			-0.141885 -0.022210 -0.003423
			-0.142081 -0.021939 -0.005582
			-0.143681 -0.019369 -0.025379
			-0.144079 -0.020069 -0.022074
			-0.141570 -0.020139 -0.015351
			-0.140930 -0.020857 -0.009336
			-0.141902 -0.018278 -0.027612
			-0.121015 -0.010123 -0.045421
			-0.131634 -0.012560 -0.036971
			-0.126388 -0.009721 -0.041238
			-0.137734 -0.016333 -0.029096
			-0.117755 -0.008562 -0.046822
			-0.115200 -0.007549 -0.046639
			-0.106193 -0.004624 -0.042008
			-0.113099 -0.014816  0.003252
			-0.107850 -0.012227  0.000528
			-0.109590 -0.013245  0.002406