<?xml version="1.0"?>
<VTKFile type="PolyData" version="0.1" byte_order="LittleEndian" compressor="vtkZLibDataCompressor">
	<PolyData>
		<Piece NumberOfPoints="702" NumberOfVerts="0" NumberOfLines="0" NumberOfStrips="0" NumberOfPolys="1400">
		<PointData Normals="Normals">
		<DataArray type="Float32" Name="Normals" NumberOfComponents="3" format="ascii">
			-0.754333 -0.109974 -0.647215
			-0.670376 -0.505526 -0.543176
			-0.514284 -0.386754 -0.765463
			-0.760736  0.405827 -0.506544
			-0.268226 -0.222242 -0.937370
			-0.818865  0.347474 -0.456861
			-0.917157  0.173325 -0.358861
			-0.971897  0.044019 -0.231254
			-0.532110 -0.699000 -0.477764
			-0.660407 -0.486296 -0.572171
			-0.987753 -0.079976 -0.133971
			-0.721895 -0.605926 -0.334246
			-0.505921 -0.241753 -0.828009
			-0.738142 -0.261714 -0.621814
			-0.945466  0.307172 -0.108350
			-0.799897  0.436477 -0.411888
			-0.970985  0.234769 -0.045512
			-0.580463 -0.085292 -0.809807
			-0.174310 -0.274942 -0.945528
			-0.879576  0.214548 -0.424635
			-0.869890  0.345874 -0.351657
			-0.764075  0.638634 -0.091308
			-0.892527  0.413646  0.179701
			-0.584663 -0.783585 -0.210150
			-0.760535 -0.579844 -0.292177
			-0.846343 -0.384259 -0.368847
			-0.998879 -0.006041  0.046945
			-0.865996  0.455940  0.205351
			-0.852479 -0.509210 -0.118257
			-0.475412 -0.177592 -0.861652
			-0.693309 -0.200064 -0.692313
			-0.833963 -0.298892 -0.463863
			-0.961364 -0.080075  0.263375
			-0.902661 -0.118066  0.413839
			-0.898515  0.229046 -0.374444
			-0.999836 -0.018023 -0.001849
			-0.884518  0.243247 -0.398069
			-0.867061 -0.152517  0.474283
			-0.964652 -0.189763 -0.182859
			-0.440405 -0.486199 -0.754755
			-0.270488 -0.424009 -0.864322
			-0.807815  0.398304 -0.434498
			-0.474853  0.789431 -0.388990
			-0.685281  0.645649  0.336940
			-0.546978  0.835987 -0.044058
			-0.762880 -0.646378  0.014456
			-0.797109 -0.534164 -0.281580
			-0.718283 -0.689791 -0.090873
			-0.528276 -0.846733 -0.062985
			-0.869965 -0.488220 -0.069298
			-0.849653 -0.489938 -0.195068
			-0.991867  0.126536  0.013736
			-0.915255  0.384265  0.121032
			-0.871967  0.476645  0.111725
			-0.723980  0.574572  0.381733
			-0.750118  0.611958  0.250659
			-0.983339 -0.029686 -0.179340
			-0.518673 -0.552173 -0.652751
			-0.562084 -0.269003 -0.782112
			-0.765173 -0.241863 -0.596668
			-0.850385 -0.365955 -0.378050
			-0.719083 -0.598182  0.353691
			-0.913970 -0.222086  0.339612
			-0.522503 -0.584952  0.620340
			-0.925207 -0.184715  0.331469
			-0.965279 -0.193771  0.175184
			-0.796408  0.472409 -0.377577
			-0.838834  0.541015 -0.060502
			-0.739640  0.588352  0.326764
			-0.535196  0.672767 -0.510834
			-0.747341 -0.570185  0.341131
			-0.413043 -0.910707  0.002936
			-0.508024 -0.859256  0.059923
			-0.364458  0.930794 -0.028164
			-0.232677  0.952865 -0.194706
			-0.694297  0.651885  0.304955
			-0.534973  0.789020  0.302079
			-0.667515 -0.734780 -0.120509
			-0.653383 -0.733897 -0.185705
			-0.782475 -0.432852 -0.447629
			-0.788627 -0.386271 -0.478395
			-0.599455 -0.663375 -0.447870
			-0.793412 -0.443484 -0.416917
			-0.529999 -0.835082 -0.147441
			-0.836258 -0.470366 -0.281831
			-0.930610 -0.188655 -0.313648
			-0.755211 -0.632235 -0.173019
			-0.753304 -0.653722 -0.071981
			-0.708382 -0.609874 -0.355314
			-0.762860  0.644705 -0.048991
			-0.628206  0.777744  0.021687
			-0.711069  0.576281  0.402841
			-0.549137  0.741650  0.385233
			-0.947862 -0.010965 -0.318492
			-0.765630  0.641703 -0.045031
			-0.652984 -0.557845 -0.512270
			-0.615102 -0.741173  0.268911
			-0.713942 -0.206206 -0.669153
			-0.845375 -0.257316 -0.468113
			-0.838495 -0.198508  0.507466
			-0.661738 -0.648419  0.376372
			-0.516583 -0.817850  0.253503
			-0.924890 -0.128544  0.357847
			-0.364820 -0.584851  0.724469
			-0.537753 -0.675020  0.505143
			-0.725257 -0.094670  0.681938
			-0.768589 -0.162027  0.618885
			-0.821128  0.093767  0.562989
			-0.378647  0.914331 -0.143615
			-0.377596  0.879958  0.288263
			-0.545051  0.427609  0.721159
			-0.117976  0.945230  0.304339
			-0.193017  0.801121  0.566524
			-0.425327 -0.621245  0.658143
			-0.526395 -0.622108  0.579560
			-0.291914  0.718672  0.631108
			-0.210433  0.899793  0.382218
			-0.119398  0.969246  0.215188
			-0.483324  0.722799  0.493923
			-0.422212  0.766306  0.484265
			-0.267190  0.687081  0.675669
			-0.313142 -0.844964 -0.433563
			-0.489806 -0.745185 -0.452537
			-0.199969 -0.808507 -0.553469
			-0.805191 -0.445261 -0.391677
			-0.746135 -0.332157 -0.577022
			-0.552029 -0.345803 -0.758738
			-0.409341 -0.557260 -0.722428
			-0.870514 -0.051627 -0.489429
			-0.917987  0.069858 -0.390409
			-0.938488  0.073183 -0.337467
			-0.915809  0.241415 -0.320956
			-0.619755 -0.451824 -0.641684
			-0.398073 -0.620598 -0.675571
			-0.467422  0.875731 -0.120884
			-0.298355  0.952912  0.054247
			 0.078473  0.909705  0.407772
			 0.197764  0.934522  0.295903
			-0.843607  0.507120 -0.176512
			-0.237992  0.935686 -0.260482
			-0.262699  0.963330 -0.054624
			-0.602351  0.776678  0.184238
			-0.823861 -0.536375  0.183179
			-0.811330 -0.343407 -0.473092
			-0.579704 -0.690805  0.432125
			-0.324573 -0.767426  0.552910
			-0.498458 -0.593333  0.632057
			-0.802796 -0.205715 -0.559643
			-0.607297 -0.479138 -0.633732
			-0.603559 -0.371073  0.705706
			-0.698199 -0.043751  0.714566
			-0.528824 -0.721309  0.447279
			-0.507402 -0.699753  0.502880
			-0.570728 -0.678913  0.461895
			-0.525708  0.391851  0.755039
			-0.064397  0.967728  0.243630
			-0.082937  0.822966  0.562003
			-0.375913  0.262201  0.888786
			-0.121060  0.247657  0.961255
			-0.147719  0.679893  0.718279
			-0.158494  0.773625  0.613502
			-0.156230  0.948491  0.275604
			-0.021789  0.839708  0.542601
			-0.103854  0.738109  0.666640
			-0.081483 -0.755462 -0.650106
			-0.108471 -0.653695 -0.748944
			 0.026473 -0.768214 -0.639646
			-0.709338 -0.191803 -0.678270
			-0.438054 -0.176679 -0.881415
			-0.149729 -0.003067 -0.988722
			-0.035155 -0.251963 -0.967098
			-0.697410  0.333773 -0.634205
			-0.753427  0.513182 -0.411087
			-0.829769  0.422501 -0.364659
			-0.723969  0.672760 -0.152521
			-0.302055 -0.457668 -0.836243
			-0.305142 -0.535419 -0.787537
			-0.046631  0.995495 -0.082548
			 0.130585  0.935523  0.328243
			 0.467203  0.862172  0.195911
			 0.450567  0.874756  0.178301
			 0.166952  0.971656 -0.167369
			 0.096580  0.939180 -0.329565
			-0.048483  0.970197 -0.237419
			-0.176799  0.981124  0.078344
			-0.446001  0.884652  0.135922
			-0.910447 -0.413599  0.004700
			-0.651002 -0.489406  0.580240
			-0.831693 -0.210950 -0.513602
			-0.294154 -0.745242  0.598405
			-0.353515 -0.801366  0.482534
			-0.037377 -0.718163  0.694870
			-0.003019 -0.757244  0.653125
			 0.102442 -0.734995  0.670290
			-0.413195 -0.520462  0.747254
			-0.131135 -0.584114  0.801009
			-0.661704 -0.269896 -0.699503
			-0.196447 -0.490834 -0.848817
			-0.548233 -0.040456  0.835346
			-0.344365 -0.328107  0.879636
			-0.400371 -0.480228  0.780438
			-0.165581 -0.493961  0.853572
			 0.018269  0.935942  0.351680
			 0.254618 -0.193774  0.947429
			-0.426688 -0.071091  0.901601
			-0.197863 -0.070802  0.977669
			-0.007559 -0.130642  0.991401
			-0.145987  0.785415  0.601507
			-0.260406  0.823337  0.504286
			-0.216446  0.888801  0.403959
			 0.107679  0.623805  0.774127
			 0.064514  0.861035  0.504437
			 0.126560 -0.432278 -0.892815
			 0.023631 -0.467984 -0.883421
			 0.096900 -0.564725 -0.819570
			 0.152892 -0.474712 -0.866760
			-0.304499  0.076863 -0.949406
			-0.051057  0.066540 -0.996477
			 0.097694  0.147150 -0.984278
			 0.115579  0.204989 -0.971916
			 0.063697  0.181980 -0.981237
			 0.217496  0.050546 -0.974751
			-0.327720  0.503621 -0.799353
			-0.591767  0.670551 -0.447407
			-0.664588  0.726355 -0.175303
			-0.545100  0.824026 -0.154426
			-0.026694 -0.546879 -0.836786
			-0.210912  0.955281  0.207253
			 0.068910  0.997587 -0.008425
			-0.201321  0.822222  0.532373
			 0.296235  0.954513  0.033917
			 0.560180  0.793455  0.237966
			 0.518757  0.837714  0.170668
			 0.421323  0.905574  0.049217
			 0.286430  0.940750 -0.181514
			 0.015462  0.992040  0.124970
			-0.347262  0.921767  0.172493
			-0.938546 -0.215493 -0.269619
			-0.917297 -0.291464  0.271322
			-0.710047 -0.315039  0.629749
			-0.350247 -0.459077  0.816441
			-0.866821 -0.026163 -0.497933
			 0.061777 -0.539019  0.840025
			 0.181457 -0.569224  0.801909
			 0.329631 -0.523861  0.785438
			 0.325510 -0.714117  0.619743
			 0.377500 -0.684678  0.623466
			 0.072171 -0.370957  0.925841
			-0.701889 -0.089259 -0.706671
			-0.345652 -0.211868 -0.914131
			 0.102108 -0.537444 -0.837095
			 0.045674 -0.397772 -0.916347
			-0.068294 -0.335123  0.939696
			-0.091208 -0.467735  0.879150
			 0.123535 -0.487138  0.864544
			-0.320816  0.920277  0.223980
			 0.428491 -0.383659  0.818047
			 0.183761 -0.485943  0.854454
			-0.049865 -0.205580  0.977369
			-0.122777  0.916449  0.380850
			-0.036217  0.880879  0.471954
			-0.332651  0.896211  0.293513
			 0.538604 -0.253806  0.803423
			 0.598427  0.218076  0.770927
			 0.276569  0.616059  0.737550
			 0.211131 -0.080080 -0.974172
			 0.268622 -0.357303 -0.894526
			 0.266613 -0.382129 -0.884813
			 0.216237 -0.505376 -0.835366
			 0.337430 -0.142449 -0.930510
			 0.004500  0.301580 -0.953430
			 0.074917  0.183500 -0.980161
			 0.081997  0.179640 -0.980309
			 0.173500  0.250047 -0.952562
			 0.199567  0.371085 -0.906901
			 0.351158  0.331244 -0.875766
			 0.032577  0.399912 -0.915974
			 0.536092  0.238029 -0.809906
			 0.429143  0.067765 -0.900691
			-0.287407  0.688635 -0.665717
			-0.429269  0.888296 -0.163275
			-0.307905  0.931549  0.193420
			-0.173221  0.983279  0.056190
			-0.160826  0.985492 -0.054224
			-0.012540  0.908030  0.418716
			-0.041972  0.899017  0.435898
			 0.052506  0.998303 -0.025185
			 0.466018  0.845260  0.261460
			 0.315639  0.948177 -0.036507
			 0.170455  0.963548  0.206204
			-0.107748  0.956946  0.269525
			 0.106089  0.918461  0.381018
			 0.423465  0.869850  0.253056
			-0.947559 -0.251572  0.197086
			-0.956611 -0.109702 -0.269928
			-0.714065 -0.306749  0.629299
			-0.442802 -0.315534  0.839264
			-0.116023 -0.276705  0.953925
			-0.849219 -0.023384 -0.527523
			 0.266726 -0.459321  0.847279
			 0.425937 -0.509587  0.747595
			 0.527072 -0.523000  0.669826
			 0.521768 -0.681349  0.513344
			 0.423761 -0.168688  0.889927
			 0.527701 -0.624625  0.575652
			 0.245227 -0.119383  0.962087
			-0.318716 -0.197824 -0.926977
			-0.673268 -0.082363 -0.734797
			 0.038424 -0.268893 -0.962403
			 0.350448 -0.520841 -0.778402
			 0.283959 -0.518696 -0.806425
			 0.329942 -0.433572 -0.838543
			 0.352620 -0.457574  0.816263
			 0.563091 -0.362798  0.742500
			 0.516340  0.742850  0.426107
			 0.549382  0.698068  0.459218
			 0.713802 -0.177056  0.677597
			 0.675042  0.411067  0.612651
			 0.525172 -0.166531 -0.834543
			 0.473436 -0.289487 -0.831898
			 0.515264 -0.404061 -0.755803
			 0.593850  0.069117 -0.801601
			-0.142393  0.612523 -0.777522
			 0.147917  0.320470 -0.935639
			 0.146367  0.534461 -0.832423
			 0.413070  0.575825 -0.705549
			 0.165107  0.823316 -0.543039
			 0.666285  0.389234 -0.636052
			 0.048360  0.713532 -0.698952
			-0.097790  0.850833 -0.516256
			 0.674637  0.288173 -0.679574
			 0.716555  0.343617 -0.607023
			-0.241407  0.918064 -0.314455
			-0.219226  0.954015  0.204437
			 0.177093  0.961220  0.211410
			 0.125254  0.986120 -0.108991
			-0.189841  0.974662 -0.118297
			 0.459163  0.841960  0.283325
			 0.127657  0.943926 -0.304478
			 0.242128  0.967430 -0.073844
			 0.614287  0.748779 -0.248961
			-0.128947  0.905500  0.404280
			 0.180171  0.846595  0.500815
			 0.340918  0.813990  0.470314
			 0.799634  0.593377  0.092142
			 0.641123  0.763084  0.081639
			 0.592144  0.805628 -0.018133
			 0.787228  0.602546  0.131191
			 0.809245  0.562008  0.171085
			-0.963973 -0.256848  0.069178
			-0.803480 -0.272871  0.529114
			-0.921989 -0.142532 -0.360029
			-0.533087 -0.289058  0.795150
			-0.216728 -0.303942  0.927711
			 0.151817 -0.243052  0.958059
			-0.833559 -0.018052 -0.552136
			 0.476048 -0.428558  0.767930
			 0.578089 -0.470088  0.666956
			 0.689758 -0.271667  0.671141
			 0.605124 -0.527637  0.596175
			 0.602925 -0.595649  0.530739
			 0.612783 -0.528334  0.587674
			 0.519632 -0.206829  0.828978
			 0.506998 -0.081895  0.858048
			 0.463244 -0.109845  0.879397
			 0.080478 -0.212341 -0.973876
			-0.364048 -0.128494 -0.922474
			-0.681741 -0.017292 -0.731389
			 0.560648 -0.407868 -0.720637
			 0.527441 -0.401579 -0.748693
			 0.591514 -0.295950 -0.750017
			 0.437011 -0.158252 -0.885425
			 0.632239 -0.327917  0.701957
			 0.741303 -0.187089  0.644567
			 0.673662  0.661493  0.329553
			 0.851911  0.043899  0.521843
			 0.785882 -0.013993 -0.618218
			 0.736930 -0.205979 -0.643822
			 0.795369 -0.285150 -0.534863
			 0.788173  0.204747 -0.580398
			 0.042651  0.918177 -0.393867
			 0.595598  0.644499 -0.479462
			 0.334536  0.906889 -0.256199
			 0.116377  0.991173  0.063501
			 0.767500  0.512047 -0.385684
			-0.034493  0.997221 -0.066040
			-0.168725  0.977228  0.128679
			 0.846429  0.342304 -0.407904
			 0.807176  0.398766 -0.435262
			 0.576034  0.813797  0.076939
			 0.574972  0.740479 -0.347991
			 0.562436  0.808860  0.171495
			-0.083585  0.920980  0.380538
			-0.081757  0.823734  0.561051
			 0.123407  0.958910  0.255464
			 0.319618  0.926260  0.199719
			 0.920502  0.254775  0.296253
			 0.960351  0.163359  0.225919
			 0.929880  0.364282  0.051205
			 0.441517  0.896147 -0.044536
			 0.913211  0.397454 -0.089864
			 0.974937  0.210481  0.072082
			 0.963226  0.265451  0.041608
			-0.877596 -0.293709  0.378894
			-0.974813 -0.205334 -0.087050
			-0.634848 -0.253804  0.729761
			-0.902502 -0.053549 -0.427343
			-0.336963 -0.274989  0.900465
			 0.069442 -0.281696  0.956987
			 0.412434 -0.265394  0.871472
			-0.788292 -0.035805 -0.614258
			 0.744239 -0.205768  0.635427
			 0.895346  0.148585  0.419855
			 0.724932 -0.083797  0.683705
			 0.806847 -0.254614  0.533077
			 0.910758  0.123724  0.393970
			 0.815272 -0.313250  0.487038
			 0.794166 -0.302559  0.527027
			 0.670775 -0.121252  0.731682
			 0.553740 -0.206881  0.806580
			 0.625249 -0.184311  0.758349
			-0.154367 -0.103704 -0.982556
			 0.149461 -0.078633 -0.985636
			-0.534499 -0.052811 -0.843517
			 0.793462 -0.210016 -0.571236
			 0.808445 -0.073303 -0.583990
			 0.785768  0.006660 -0.618485
			 0.304102  0.046243 -0.951516
			 0.564126  0.164475 -0.809141
			 0.695070  0.111552 -0.710236
			 0.794768 -0.157776  0.586047
			 0.903294 -0.068550  0.423510
			 0.962189  0.013415 -0.272054
			 0.958600 -0.126919 -0.254909
			 0.960103 -0.043047 -0.276313
			 0.974576  0.180307 -0.133009
			 0.379268  0.914009  0.144026
			 0.292788  0.947104  0.131414
			 0.889841  0.054142  0.453048
			 0.936310  0.251507  0.245086
			 0.925505  0.376395  0.042035
			 0.968171  0.246055  0.045849
			-0.807737 -0.244509  0.536448
			-0.970062 -0.221326  0.099971
			-0.949128 -0.097347 -0.299467
			-0.515478 -0.239980  0.822613
			-0.841334 -0.017539 -0.540232
			-0.185537 -0.301897  0.935112
			 0.143480 -0.248966  0.957826
			 0.457037 -0.179316  0.871185
			-0.676811 -0.041697 -0.734975
			 0.904162  0.029513  0.426169
			 0.919466  0.103964  0.379175
			 0.902509  0.400953  0.157205
			 0.941676  0.327585  0.077039
			 0.930636 -0.011433  0.365767
			 0.950159  0.025789  0.310697
			 0.958622  0.274627  0.074988
			 0.942993  0.001407  0.332810
			 0.595484 -0.158627  0.787551
			 0.903018 -0.036782  0.428024
			 0.573839 -0.178889  0.799192
			 0.530262 -0.139203  0.836328
			 0.015277 -0.041543 -0.999020
			-0.350566 -0.040647 -0.935655
			 0.208526  0.004714 -0.978005
			 0.925919  0.104499 -0.362980
			 0.908390  0.305768 -0.285190
			 0.899111  0.268963 -0.345339
			 0.450659  0.135283 -0.882386
			 0.857977  0.166118 -0.486088
			 0.795277  0.198285 -0.572903
			 0.890968  0.203120 -0.406100
			 0.994300  0.103035 -0.027427
			 0.987674  0.011172 -0.156124
			 0.963191  0.200984 -0.178519
			 0.966877  0.160311  0.198619
			 0.967376  0.253189  0.008937
			-0.654510 -0.247345  0.714449
			-0.926273 -0.172173  0.335224
			-0.992299 -0.094323 -0.080283
			-0.903521 -0.055382 -0.424950
			-0.288577 -0.321531  0.901854
			-0.777613 -0.042868 -0.627280
			 0.050416 -0.335638  0.940641
			 0.351879 -0.190460  0.916464
			 0.565540 -0.067474  0.821956
			-0.539389 -0.053257 -0.840371
			 0.968947  0.240010  0.059467
			 0.899328  0.418985 -0.125143
			 0.997819  0.063144  0.019256
			 0.990626  0.134597 -0.023307
			 0.987714  0.095867  0.123409
			 0.992322  0.072592 -0.100136
			 0.743373 -0.102827  0.660926
			 0.949963  0.044055  0.309241
			 0.665253 -0.173754  0.726119
			 0.519452 -0.059602  0.852418
			 0.148230  0.056710 -0.987326
			 0.054047 -0.013079 -0.998453
			-0.201706 -0.040930 -0.978591
			 0.270325  0.080383 -0.959408
			 0.621629  0.131208 -0.772245
			 0.985494  0.133089 -0.105306
			 0.918564  0.139314 -0.369908
			-0.701669 -0.303275  0.644736
			-0.368637 -0.338706  0.865670
			-0.965967 -0.127198  0.225231
			-0.973798 -0.009149 -0.227231
			-0.855354  0.009166 -0.517963
			-0.043519 -0.288426  0.956513
			-0.687315 -0.016304 -0.726176
			 0.367775 -0.218790  0.903810
			 0.544143 -0.118584  0.830570
			-0.344125 -0.073658 -0.936030
			 0.923122 -0.056365  0.380353
			 0.996927  0.035128  0.070021
			 0.769446 -0.222698  0.598631
			 0.943807 -0.186614  0.272770
			 0.144063  0.067181 -0.987286
			 0.412864  0.004195 -0.910783
			-0.009800 -0.076520 -0.997020
			 0.829868 -0.068725 -0.553711
			 0.987112 -0.091899 -0.131015
			-0.719603 -0.208584  0.662318
			-0.326623 -0.279782  0.902795
			-0.940030 -0.120289  0.319176
			-0.995692 -0.001907 -0.092707
			-0.906445  0.097431 -0.410932
			-0.763145  0.078881 -0.641395
			 0.132995 -0.288473  0.948207
			-0.483743  0.019504 -0.874993
			 0.498286 -0.198722  0.843932
			 0.718403 -0.194152  0.667983
			-0.072438 -0.092160 -0.993106
			 0.931418 -0.192839  0.308666
			 0.973595 -0.197710 -0.114123
			 0.137651 -0.027508 -0.990099
			 0.406983  0.008909 -0.913392
			 0.780800 -0.146352 -0.607398
			-0.828119 -0.168780  0.534539
			-0.513055 -0.213520  0.831374
			-0.136980 -0.298088  0.944659
			-0.985916 -0.071201  0.151326
			-0.971437  0.030046 -0.235386
			-0.849931  0.075562 -0.521448
			-0.564962  0.014849 -0.824983
			 0.202253 -0.334179  0.920553
			 0.457551 -0.229201  0.859136
			-0.189302 -0.014463 -0.981812
			 0.687097 -0.226748  0.690277
			 0.877086 -0.257983  0.405172
			 0.057750 -0.025889 -0.997995
			 0.974779 -0.198829  0.101358
			 0.941489 -0.156794 -0.298353
			 0.339459 -0.062401 -0.938549
			 0.700118 -0.091729 -0.708110
			-0.878617 -0.166242  0.447657
			-0.612085 -0.216501  0.760579
			-0.238948 -0.258249  0.936062
			 0.121427 -0.317316  0.940514
			-0.992806 -0.104920  0.057696
			-0.942143 -0.014333 -0.334904
			-0.776581  0.029274 -0.629337
			-0.514546  0.018788 -0.857257
			-0.146231  0.040369 -0.988426
			 0.445272 -0.305746  0.841577
			 0.679600 -0.197626  0.706462
			 0.879798 -0.218869  0.421962
			 0.975124 -0.209513  0.072376
			 0.164254  0.043337 -0.985466
			 0.905514 -0.161651 -0.392318
			 0.639854 -0.086930 -0.763564
			-0.697379 -0.270518  0.663689
			-0.923329 -0.187037  0.335383
			-0.367263 -0.281429  0.886519
			-0.029964 -0.241310  0.969985
			 0.334075 -0.273682  0.901938
			-0.991169 -0.090552 -0.096870
			-0.884209 -0.022258 -0.466560
			-0.692773  0.050784 -0.719365
			-0.421046  0.070916 -0.904263
			-0.055610  0.208059 -0.976534
			-0.153057  0.163296 -0.974632
			 0.548617 -0.230975  0.803536
			 0.889052 -0.178987  0.421366
			 0.709417 -0.197684  0.676497
			 0.981028 -0.187008  0.051108
			 0.598601 -0.001872 -0.801045
			 0.140386  0.103345 -0.984688
			 0.907399 -0.129839 -0.399711
			-0.793990 -0.201172  0.573682
			-0.492279 -0.246725  0.834738
			-0.982550 -0.099561  0.157111
			-0.141103 -0.256354  0.956228
			 0.207121 -0.204156  0.956776
			 0.484065 -0.210352  0.849372
			-0.958971 -0.030857 -0.281821
			-0.809084  0.010944 -0.587591
			-0.609094  0.041252 -0.792025
			-0.316512  0.079568 -0.945245
			-0.062649  0.125916 -0.990061
			 0.127258  0.081748 -0.988495
			 0.662898 -0.216849  0.716619
			 0.867439 -0.200014  0.455570
			 0.985843 -0.161860  0.043751
			 0.883363 -0.104329 -0.456929
			 0.509565 -0.031740 -0.859846
			-0.899674 -0.125239  0.418212
			-0.558451 -0.168892  0.812163
			-0.199098 -0.215482  0.955996
			-0.990282 -0.090211 -0.105849
			 0.170043 -0.228493  0.958580
			 0.447918 -0.173579  0.877063
			 0.729703 -0.226535  0.645147
			-0.880295 -0.012885 -0.474252
			-0.699929  0.033996 -0.713403
			-0.416849  0.036294 -0.908251
			-0.088646  0.038042 -0.995336
			 0.172339  0.045249 -0.983998
			 0.684959  0.005244 -0.728563
			 0.935980 -0.189857  0.296472
			 0.979389 -0.127634 -0.156544
			-0.657252 -0.122015  0.743729
			-0.927025 -0.077609  0.366881
			-0.998418 -0.052495 -0.020156
			-0.259442 -0.210836  0.942464
			 0.089515 -0.254995  0.962790
			-0.912439  0.001413 -0.409210
			 0.436688 -0.240516  0.866865
			 0.688996 -0.201473  0.696199
			 0.906641 -0.212185  0.364663
			-0.742950  0.098341 -0.662083
			-0.480844  0.143796 -0.864935
			-0.125094  0.074961 -0.989309
			 0.137261  0.039135 -0.989762
			 0.482129  0.010595 -0.876036
			 0.871819 -0.068956 -0.484951
			 0.989399 -0.110484 -0.094244
			-0.829780 -0.165956  0.532844
			-0.446941 -0.205687  0.870596
			-0.992415 -0.094255  0.078921
			-0.936485  0.007113 -0.350634
			-0.062711 -0.267546  0.961502
			 0.245199 -0.268336  0.931597
			-0.757188  0.108411 -0.644138
			 0.672926 -0.150994  0.724135
			 0.471921 -0.192310  0.860411
			 0.896275 -0.155166  0.415469
			 0.983468 -0.173746 -0.051013
			-0.460798  0.166102 -0.871823
			-0.120207  0.091694 -0.988505
			 0.175079 -0.069955 -0.982066
			 0.424263 -0.160646 -0.891175
			 0.813728 -0.106815 -0.571348
			-0.580600 -0.235734  0.779316
			-0.893878 -0.220550  0.390307
			-0.184094 -0.231005  0.955377
			-0.986363 -0.155041 -0.055222
			-0.791473  0.044646 -0.609571
			-0.920723 -0.056574 -0.386095
			 0.095441 -0.238418  0.966461
			 0.352332 -0.188161  0.916765
			-0.497499  0.081326 -0.863644
			 0.607204 -0.162504  0.777751
			 0.836885 -0.162412  0.522729
			 0.979313 -0.142769  0.143397
			 0.755256 -0.125580 -0.643286
			-0.109661  0.084959 -0.990332
			 0.173649  0.030651 -0.984331
			-0.612251 -0.244558  0.751891
			-0.205647 -0.214572  0.954813
			-0.912943 -0.212110  0.348631
			 0.139597 -0.199800  0.969842
			-0.982922 -0.145322 -0.112900
			-0.874451 -0.066924 -0.480475
			-0.630137  0.007024 -0.776452
			 0.461129 -0.183634  0.868124
			-0.300170  0.037268 -0.953157
			 0.714186 -0.192851  0.672865
			 0.913999 -0.141314  0.380310
			 0.984899 -0.142179 -0.098788
			 0.770287 -0.176569 -0.612765
			 0.425513 -0.117735 -0.897261
			 0.181629 -0.021071 -0.983141
			-0.037447  0.109417 -0.993290
			-0.361384 -0.785346  0.502626
			 0.102118 -0.830848  0.547049
			 0.371361 -0.855728  0.360307
			-0.829809 -0.527350  0.182533
			 0.488924 -0.727910  0.480729
			-0.439744 -0.852074 -0.283893
			-0.391748 -0.569839 -0.722369
			-0.155060 -0.894581 -0.419143
			-0.104924 -0.490115 -0.865320
			 0.627984 -0.677586  0.382771
			 0.218233 -0.577967 -0.786339
			 0.737279 -0.638427  0.220976
			 0.935086 -0.351258  0.047235
			 0.736387 -0.480579 -0.476212
			 0.482987 -0.630609 -0.607499
			 0.385888 -0.560348 -0.732871
		</DataArray>
	</PointData>
	<Points>
		<DataArray type="Float32" NumberOfComponents="3" format="ascii">
			 0.084231 -0.458948 -0.139739
			 0.086226 -0.457188 -0.142896
			 0.088892 -0.463230 -0.140095
			 0.078008 -0.465505 -0.135781
			 0.084939 -0.465371 -0.137809
			 0.082329 -0.461401 -0.137219
			 0.083138 -0.454485 -0.138033
			 0.084073 -0.453514 -0.140912
			 0.089203 -0.456514 -0.145686
			 0.092445 -0.460943 -0.144596
			 0.084111 -0.451631 -0.144254
			 0.086201 -0.454414 -0.147054
			 0.088656 -0.466865 -0.138742
			 0.093114 -0.464120 -0.143551
			 0.078928 -0.462734 -0.131118
			 0.080353 -0.461183 -0.135278
			 0.077027 -0.466269 -0.133645
			 0.077801 -0.468790 -0.136706
			 0.084719 -0.468994 -0.136483
			 0.082072 -0.458966 -0.135956
			 0.082102 -0.453902 -0.134914
			 0.083992 -0.452392 -0.136993
			 0.084808 -0.450414 -0.139757
			 0.090582 -0.455767 -0.149357
			 0.094627 -0.459020 -0.150871
			 0.095469 -0.462316 -0.148479
			 0.084794 -0.449437 -0.147067
			 0.084847 -0.448158 -0.143022
			 0.084384 -0.450655 -0.151358
			 0.087573 -0.470908 -0.137237
			 0.092337 -0.468097 -0.141554
			 0.096328 -0.465285 -0.148246
			 0.078962 -0.463054 -0.126921
			 0.077695 -0.466415 -0.130602
			 0.080888 -0.458979 -0.133064
			 0.079103 -0.454218 -0.125895
			 0.079579 -0.453093 -0.129073
			 0.077093 -0.469786 -0.132162
			 0.076703 -0.469667 -0.134161
			 0.078697 -0.471844 -0.135793
			 0.083669 -0.472973 -0.135325
			 0.080951 -0.453440 -0.131903
			 0.083833 -0.451043 -0.133088
			 0.087801 -0.448864 -0.137284
			 0.088516 -0.449631 -0.133172
			 0.094858 -0.458123 -0.156213
			 0.089636 -0.453465 -0.164467
			 0.086616 -0.452674 -0.153902
			 0.090230 -0.455022 -0.155111
			 0.096467 -0.460911 -0.154897
			 0.097971 -0.463593 -0.154625
			 0.083679 -0.448456 -0.151424
			 0.085266 -0.446838 -0.146203
			 0.084419 -0.446681 -0.150532
			 0.089533 -0.445488 -0.139103
			 0.087003 -0.444951 -0.144569
			 0.084237 -0.447784 -0.154635
			 0.085603 -0.475397 -0.135459
			 0.090547 -0.472626 -0.138942
			 0.095660 -0.469432 -0.144764
			 0.098410 -0.467299 -0.150707
			 0.081410 -0.465662 -0.124232
			 0.080387 -0.462953 -0.123212
			 0.082704 -0.467884 -0.127708
			 0.080864 -0.459954 -0.120959
			 0.079012 -0.454437 -0.122256
			 0.080029 -0.450188 -0.128164
			 0.079048 -0.450446 -0.125176
			 0.078774 -0.451551 -0.121846
			 0.082274 -0.450414 -0.130338
			 0.077763 -0.472706 -0.132839
			 0.079806 -0.474384 -0.134020
			 0.084848 -0.476059 -0.133313
			 0.090344 -0.446921 -0.127557
			 0.084451 -0.448513 -0.128383
			 0.095975 -0.442646 -0.130130
			 0.096201 -0.443461 -0.126382
			 0.092858 -0.457931 -0.163681
			 0.095551 -0.460298 -0.161868
			 0.090679 -0.452757 -0.166082
			 0.092450 -0.453660 -0.169934
			 0.094036 -0.456561 -0.169305
			 0.089391 -0.451249 -0.166728
			 0.089997 -0.454301 -0.159453
			 0.087671 -0.452489 -0.160601
			 0.087753 -0.449601 -0.163710
			 0.086926 -0.452888 -0.157471
			 0.097623 -0.463234 -0.158127
			 0.100068 -0.465413 -0.158342
			 0.085171 -0.446086 -0.153618
			 0.089773 -0.441499 -0.145622
			 0.096177 -0.440483 -0.133297
			 0.098205 -0.436601 -0.134801
			 0.085047 -0.446972 -0.157636
			 0.085592 -0.445090 -0.156862
			 0.088570 -0.477382 -0.135383
			 0.088471 -0.477737 -0.133284
			 0.091287 -0.475735 -0.138137
			 0.099514 -0.470138 -0.150602
			 0.082312 -0.462816 -0.118201
			 0.083874 -0.465519 -0.117600
			 0.085484 -0.467479 -0.121885
			 0.081519 -0.462923 -0.120333
			 0.083914 -0.470537 -0.128538
			 0.086240 -0.469770 -0.126553
			 0.083969 -0.460010 -0.116051
			 0.081160 -0.456822 -0.117437
			 0.080195 -0.453582 -0.118392
			 0.081518 -0.448725 -0.126794
			 0.080553 -0.449554 -0.123910
			 0.082525 -0.452437 -0.117055
			 0.092895 -0.451121 -0.115315
			 0.101846 -0.452198 -0.106488
			 0.086284 -0.472668 -0.129315
			 0.088601 -0.474903 -0.129556
			 0.095703 -0.445848 -0.123472
			 0.089459 -0.447859 -0.124636
			 0.084198 -0.448502 -0.124815
			 0.099424 -0.438753 -0.130606
			 0.098968 -0.441029 -0.127643
			 0.098038 -0.443479 -0.125059
			 0.097426 -0.458431 -0.168705
			 0.097995 -0.462595 -0.161294
			 0.101312 -0.460408 -0.165852
			 0.091095 -0.452261 -0.168147
			 0.092074 -0.451344 -0.171316
			 0.093836 -0.452797 -0.172404
			 0.096103 -0.455155 -0.172441
			 0.089498 -0.447700 -0.169566
			 0.088340 -0.446885 -0.166488
			 0.086315 -0.446373 -0.160348
			 0.087521 -0.444696 -0.162889
			 0.103239 -0.466917 -0.160889
			 0.102717 -0.463573 -0.162619
			 0.095589 -0.438279 -0.144526
			 0.099419 -0.435141 -0.137380
			 0.100165 -0.436666 -0.133399
			 0.101206 -0.435485 -0.136159
			 0.086674 -0.443454 -0.159500
			 0.098794 -0.436900 -0.145683
			 0.095111 -0.440314 -0.152779
			 0.088205 -0.442184 -0.158140
			 0.090214 -0.480261 -0.133345
			 0.090499 -0.479741 -0.135981
			 0.093662 -0.473714 -0.121989
			 0.098868 -0.475268 -0.117916
			 0.097680 -0.478293 -0.123620
			 0.098552 -0.474213 -0.148519
			 0.103661 -0.470304 -0.159184
			 0.086531 -0.464886 -0.113689
			 0.087743 -0.461252 -0.112024
			 0.088047 -0.467300 -0.115187
			 0.092083 -0.469106 -0.113028
			 0.088368 -0.472066 -0.126955
			 0.086816 -0.452769 -0.113223
			 0.096816 -0.450913 -0.116192
			 0.105967 -0.451921 -0.106040
			 0.098160 -0.454585 -0.106390
			 0.103792 -0.453000 -0.105846
			 0.102415 -0.446314 -0.122471
			 0.100294 -0.448350 -0.120663
			 0.107350 -0.451243 -0.112403
			 0.102092 -0.439254 -0.128779
			 0.101547 -0.441360 -0.125848
			 0.099605 -0.456974 -0.171830
			 0.107798 -0.460583 -0.167160