<?xml version="1.0"?>
<VTKFile type="PolyData" version="0.1" byte_order="LittleEndian" compressor="vtkZLibDataCompressor">
	<PolyData>
		<Piece NumberOfPoints="419" NumberOfVerts="0" NumberOfLines="0" NumberOfStrips="0" NumberOfPolys="834">
		<PointData Normals="Normals">
		<DataArray type="Float32" Name="Normals" NumberOfComponents="3" format="ascii">
			-0.600886 -0.579824  0.550218
			-0.209240 -0.919732  0.332132
			 0.281104 -0.938941  0.198421
			 0.576769 -0.779092  0.245668
			-0.596440 -0.511138  0.618868
			-0.647681 -0.504600  0.570866
			-0.607493 -0.612386  0.505901
			 0.721832 -0.629537 -0.287473
			 0.594424 -0.749077 -0.292480
			-0.048139 -0.959147  0.278782
			 0.933609 -0.128438 -0.334482
			 0.945552  0.147285 -0.290237
			 0.809097 -0.564867  0.162137
			-0.333768 -0.757391  0.561211
			 0.979803  0.070509 -0.187123
			-0.275978 -0.920779 -0.275684
			-0.547147 -0.596808 -0.586900
			-0.683693 -0.649811  0.332130
			-0.762486 -0.367045  0.532816
			-0.665228 -0.356600  0.655979
			 0.783137 -0.171780 -0.597652
			 0.546095 -0.628434 -0.553942
			 0.738350  0.216473 -0.638733
			 0.882223  0.339396 -0.326332
			 0.661506 -0.660645  0.354906
			 0.335958 -0.168806 -0.926626
			 0.236207 -0.029737 -0.971248
			-0.396964 -0.443472 -0.803587
			-0.834646 -0.544446 -0.083335
			-0.700794 -0.330074  0.632408
			-0.806854 -0.325578  0.492936
			-0.985257 -0.171076 -0.001215
			 0.678783  0.303703 -0.668594
			 0.899899  0.295495 -0.320724
			 0.846473  0.367346 -0.385410
			 0.967230  0.112822 -0.227460
			 0.388251 -0.693242  0.607187
			-0.813748 -0.354167  0.460846
			 0.107581  0.123243 -0.986528
			-0.459279 -0.029078 -0.887816
			-0.969711  0.231495  0.077913
			-0.731973 -0.340441  0.590182
			-0.777382 -0.451653  0.437820
			-0.345095  0.443727 -0.827053
			 0.240904  0.491666 -0.836797
			 0.710378  0.468708 -0.525049
			 0.747190  0.482707 -0.456839
			 0.864896  0.350876 -0.358943
			 0.952461  0.059368 -0.298821
			-0.796554 -0.445571  0.408617
			 0.239671 -0.956123  0.168484
			-0.451929  0.535999 -0.713068
			-0.977165  0.091096  0.191966
			-0.680269 -0.595099  0.427891
			-0.588115 -0.755550  0.288557
			 0.238077  0.698552 -0.674792
			 0.777403  0.463694 -0.425008
			 0.180797  0.775400 -0.605034
			 0.411793  0.734241 -0.539738
			 0.834238  0.356292 -0.420835
			 0.881638 -0.013264 -0.471739
			 0.884566 -0.422162 -0.198300
			 0.637840 -0.705817  0.308192
			-0.069860 -0.826731  0.558243
			-0.405057 -0.859985  0.310410
			-0.559241  0.664932 -0.495091
			-0.516850  0.787821 -0.334968
			-0.967169 -0.025366  0.252864
			-0.673408 -0.678281  0.294035
			-0.537340 -0.828041  0.160042
			 0.210179  0.762342 -0.612094
			 0.614087  0.597598 -0.515532
			 0.755326  0.549810 -0.356639
			 0.776779  0.393720 -0.491528
			 0.872447 -0.152888 -0.464178
			 0.093413 -0.509007  0.855679
			 0.764014 -0.484893  0.425629
			-0.316641 -0.672799  0.668640
			-0.497193 -0.800675  0.334243
			-0.533862  0.749845 -0.390798
			-0.999812 -0.004217  0.018916
			-0.617730 -0.739114  0.268552
			 0.406146  0.770311 -0.491595
			 0.735353  0.172043 -0.655482
			 0.694204 -0.201960 -0.690864
			 0.959144 -0.269824 -0.085075
			 0.369670 -0.258234  0.892558
			-0.247272 -0.267059  0.931416
			-0.593109 -0.422121  0.685592
			-0.257801  0.791878 -0.553595
			-0.768493 -0.629962  0.112096
			-0.915461  0.233105 -0.328015
			-0.642361 -0.511348  0.570874
			 0.721341  0.234211 -0.651776
			 0.656585 -0.208762 -0.724786
			 0.696203 -0.298995 -0.652613
			 0.975046 -0.199146 -0.098117
			 0.702847 -0.175403  0.689377
			-0.002618 -0.213071  0.977033
			-0.474828 -0.204588  0.855968
			 0.178156  0.667355 -0.723117
			-0.676028  0.371289 -0.636499
			-0.455669 -0.876544  0.155040
			-0.631409 -0.614026 -0.473598
			-0.470899 -0.527361  0.707209
			 0.586859 -0.073262 -0.806368
			 0.803494 -0.233945 -0.547418
			 0.784163 -0.186115  0.591988
			 0.988089 -0.127018  0.086865
			 0.165265 -0.269328  0.948762
			-0.340971 -0.310065  0.887467
			-0.233392  0.349287 -0.907484
			 0.268802  0.486091 -0.831541
			-0.349256 -0.826460  0.441571
			-0.461527 -0.827730 -0.319149
			-0.513470 -0.223305 -0.828543
			-0.451869 -0.338788  0.825250
			 0.480261  0.009311 -0.877076
			 0.760172 -0.080203 -0.644753
			 0.984878 -0.147921 -0.090189
			 0.214663 -0.353779  0.910363
			 0.815196 -0.244510  0.525044
			-0.315282 -0.272020  0.909177
			-0.240169  0.518397 -0.820721
			 0.246525  0.340227 -0.907453
			-0.191876 -0.922660  0.334489
			-0.591653 -0.781063 -0.199718
			-0.247580 -0.536774  0.806585
			-0.625486 -0.128126 -0.769644
			 0.516402  0.016983 -0.856178
			 0.828814 -0.027291 -0.558859
			 0.999743 -0.014157 -0.017716
			 0.869508 -0.163128  0.466203
			-0.257192 -0.386744  0.885596
			 0.335622 -0.357020  0.871719
			-0.363130  0.474121 -0.802088
			 0.010825  0.434531 -0.900592
			 0.435760 -0.047727 -0.898796
			-0.145682 -0.842120  0.519241
			-0.506093 -0.828255 -0.240548
			-0.647626 -0.156049 -0.745808
			-0.136515 -0.643830  0.752892
			 0.724866  0.051622 -0.686953
			 0.979471  0.136111 -0.148696
			 0.901388  0.006203  0.432967
			 0.440943 -0.298655  0.846389
			-0.124694 -0.498444  0.857907
			-0.290606  0.367764 -0.883345
			 0.260696 -0.004542 -0.965410
			-0.096412  0.344573 -0.933796
			 0.651874 -0.042529 -0.757134
			-0.062498 -0.509857  0.857986
			-0.522751 -0.702246  0.483302
			-0.685283 -0.668239 -0.289559
			-0.088380 -0.571954  0.815511
			-0.587014 -0.276044 -0.761061
			 0.962934  0.050972 -0.264876
			 0.955156  0.049082  0.292007
			 0.615755 -0.161920  0.771121
			-0.038713 -0.320252  0.946541
			-0.172876  0.295678 -0.939515
			-0.530964  0.009066 -0.847346
			-0.056938  0.147504 -0.987421
			 0.300470  0.037826 -0.953041
			 0.746450  0.011993 -0.665334
			-0.077396 -0.486397  0.870303
			-0.118833 -0.335028  0.934685
			-0.510551 -0.566024  0.647266
			-0.866530 -0.450057 -0.215810
			 0.948991 -0.026499 -0.314187
			 0.960573 -0.211095  0.180937
			 0.719155 -0.167425  0.674377
			 0.034750 -0.198258  0.979534
			-0.398189  0.118368 -0.909634
			-0.016334  0.146037 -0.989144
			 0.568267  0.119341 -0.814144
			-0.278494 -0.442732  0.852308
			-0.203863 -0.195853  0.959209
			-0.853177 -0.382354  0.354816
			-0.886504 -0.157286 -0.435168
			 0.963504 -0.102183 -0.247425
			 0.855962  0.036241 -0.515768
			 0.942773 -0.217369  0.252844
			 0.662915 -0.163380  0.730651
			 0.122926 -0.111986  0.986077
			-0.944979 -0.007065 -0.327053
			-0.169748  0.201196 -0.964731
			-0.503193  0.250455 -0.827085
			 0.159498  0.120721 -0.979789
			 0.670573  0.104967 -0.734379
			-0.250378 -0.486605  0.836974
			-0.814669 -0.341792  0.468500
			-0.036128 -0.214339  0.976091
			 0.024564  0.076434  0.996772
			 0.855912  0.050870 -0.514613
			 0.971724 -0.056767 -0.229193
			 0.940401 -0.068341  0.333130
			 0.550943  0.069387  0.831653
			-0.945230 -0.054580 -0.321810
			-0.027276  0.008731 -0.999590
			-0.406006  0.165937 -0.898679
			 0.393328  0.105486 -0.913327
			 0.761013  0.027738 -0.648143
			 0.093637 -0.273784  0.957222
			-0.359349 -0.470539  0.805892
			-0.769205 -0.445954  0.457656
			 0.104387  0.123508  0.986838
			 0.990374 -0.103072 -0.092387
			 0.793964  0.032708  0.607085
			-0.690486  0.045886 -0.721889
			-0.925168 -0.375781 -0.053414
			-0.136862 -0.035394 -0.989958
			 0.176958 -0.135096 -0.974903
			-0.406509  0.144352 -0.902171
			 0.543372 -0.124604 -0.830193
			 0.739335 -0.145067 -0.657525
			 0.072483  0.055647  0.995816
			-0.123726 -0.286646  0.950014
			-0.649840 -0.625589  0.431678
			 0.477586  0.132786  0.868493
			 0.983434  0.086047  0.159539
			-0.520304  0.074319 -0.850741
			-0.814647 -0.463101 -0.349124
			-0.285368  0.020502 -0.958199
			 0.200793 -0.234203 -0.951226
			 0.599491 -0.179448 -0.780005
			 0.778872 -0.116244 -0.616316
			 0.975976  0.089426 -0.198680
			 0.099275  0.106158  0.989381
			 0.098362 -0.029182  0.994723
			-0.071680 -0.642895  0.762593
			-0.570685 -0.787003  0.234403
			 0.620769  0.392096  0.678901
			 0.235872  0.339688  0.910481
			-0.427922  0.001073 -0.903815
			-0.688114 -0.175963 -0.703944
			-0.763708 -0.631195 -0.135438
			-0.233457 -0.132522 -0.963294
			 0.041705 -0.200174 -0.978872
			 0.438766 -0.151825 -0.885683
			 0.772387 -0.035122 -0.634180
			 0.928241  0.353173  0.116776
			 0.078834  0.320443  0.943982
			 0.169804 -0.006404  0.985457
			 0.211861 -0.455995  0.864398
			-0.349293 -0.871145  0.345110
			 0.402745  0.376635  0.834231
			-0.487891  0.001791 -0.872903
			-0.743432 -0.265827 -0.613714
			-0.675358 -0.682391 -0.279704
			-0.214696 -0.094417 -0.972106
			 0.140018  0.005190 -0.990135
			 0.573417 -0.089765 -0.814331
			 0.840952  0.089336 -0.533685
			 0.855975  0.513769 -0.057862
			 0.606372  0.540069  0.583643
			 0.247561  0.323865  0.913140
			 0.033873  0.266236  0.963313
			 0.191347  0.160136  0.968371
			 0.183191 -0.517675  0.835735
			-0.254368 -0.950296  0.179540
			-0.415453 -0.095954 -0.904540
			-0.715532 -0.074992 -0.694543
			-0.675750 -0.646091 -0.354864
			-0.231557 -0.047939 -0.971639
			-0.031652  0.093498 -0.995116
			 0.375814  0.097241 -0.921579
			 0.827678  0.427482 -0.363604
			 0.495683  0.679887  0.540418
			 0.020018  0.251462  0.967660
			 0.113480  0.446180  0.887719
			 0.084084  0.215132  0.972958
			 0.303857  0.115981  0.945632
			 0.338463 -0.583513  0.738211
			-0.147231 -0.969577  0.195558
			-0.544460 -0.093081 -0.833606
			-0.364905 -0.011482 -0.930974
			-0.746797 -0.196875 -0.635243
			-0.753453 -0.588705 -0.292807
			-0.162486  0.069513 -0.984259
			 0.151729  0.030944 -0.987938
			 0.598756  0.551720 -0.580600
			 0.495637  0.830968  0.252658
			 0.221963  0.724354  0.652721
			 0.057146  0.440866  0.895752
			 0.116620  0.276975  0.953774
			 0.444719  0.187477  0.875829
			 0.444354 -0.344006  0.827169
			-0.334027 -0.766698  0.548270
			-0.333662 -0.215361 -0.917763
			-0.587808 -0.187435 -0.786988
			-0.170162 -0.111974 -0.979034
			-0.794324 -0.216723 -0.567521
			-0.911528 -0.394525 -0.116048
			 0.051891 -0.084956 -0.995032
			 0.514235  0.472435 -0.715798
			 0.471877  0.866346  0.163638
			 0.258962  0.741908  0.618475
			 0.015772  0.389043  0.921085
			 0.069677  0.527768  0.846526
			 0.184445  0.339697  0.922272
			 0.567624  0.251727  0.783860
			 0.416043  0.342527  0.842368
			 0.448600 -0.062205  0.891565
			-0.416969 -0.494744  0.762473
			-0.488019 -0.203155 -0.848862
			-0.185174 -0.251648 -0.949939
			-0.695810 -0.094448 -0.711989
			 0.014248 -0.208439 -0.977932
			-0.926628 -0.170992 -0.334845
			-0.774105 -0.099318 -0.625218
			-0.915661 -0.259252  0.307169
			 0.395869  0.431915 -0.810393
			 0.472239  0.881362  0.013845
			 0.348769  0.820429  0.453052
			 0.177604  0.575322  0.798412
			 0.041518  0.375251  0.925993
			 0.510574  0.255123  0.821113
			 0.223324  0.324288  0.919219
			 0.692135  0.069585  0.718406
			 0.150217 -0.166003  0.974617
			-0.338371 -0.209249 -0.917453
			-0.631540 -0.198841 -0.749412
			-0.060334 -0.171869 -0.983271
			-0.827494 -0.094530 -0.553460
			 0.322690  0.478743 -0.816503
			-0.990710 -0.033543 -0.131793
			-0.689643 -0.006447  0.724121
			 0.458305  0.885573 -0.075604
			 0.445645  0.795673  0.410250
			 0.219544  0.555323  0.802133
			 0.188857  0.325128  0.926620
			 0.715239  0.083857  0.693831
			 0.528215  0.231012  0.817082
			 0.376821  0.069552  0.923671
			-0.515432 -0.274756 -0.811689
			-0.266727 -0.319370 -0.909318
			-0.091649 -0.187398 -0.977999
			-0.812867 -0.064832 -0.578831
			-0.667578 -0.202461 -0.716484
			 0.193964  0.583314 -0.788748
			-0.974276  0.129220 -0.184632
			 0.379434  0.924871  0.025368
			-0.667434  0.261939  0.697080
			 0.306391  0.846711  0.434977
			 0.120277  0.524370  0.842953
			 0.259614  0.308381  0.915151
			 0.489664  0.288244  0.822888
			 0.471781  0.161123  0.866869
			 0.709650  0.175205  0.682423
			-0.540121 -0.323188 -0.777058
			-0.038555 -0.061065 -0.997389
			-0.287006 -0.337795 -0.896394
			 0.037605  0.571643 -0.819640
			-0.975667  0.130622 -0.176100
			-0.807592 -0.158924 -0.567924
			 0.265242  0.963260  0.042151
			-0.688325  0.389469  0.611983
			 0.156335  0.817511  0.554288
			 0.127018  0.512134  0.849462
			 0.558081  0.303766  0.772187
			 0.680334  0.222125  0.698431
			 0.271521  0.370253  0.888363
			-0.764846 -0.265333 -0.587034
			-0.493458 -0.308240 -0.813318
			-0.599563 -0.289269 -0.746222
			-0.002705  0.525376 -0.850866
			 0.141840  0.913286 -0.381825
			-0.184877 -0.128130 -0.974373
			-0.443246  0.477656  0.758537
			-0.989076 -0.006775 -0.147252
			 0.120647  0.966839  0.225092
			-0.008835  0.810611  0.585519
			 0.421502  0.518286  0.744120
			 0.152189  0.539221  0.828299
			 0.632143  0.391778  0.668510
			 0.438382  0.419930  0.794657
			-0.982692 -0.105981 -0.151935
			-0.745259 -0.278565 -0.605798
			-0.403017 -0.310888 -0.860771
			-0.560732 -0.396551 -0.726861
			 0.009338  0.980870 -0.194437
			 0.078497  0.272954 -0.958819
			-0.209707  0.100440 -0.972592
			-0.637118  0.391348  0.664024
			 0.057246  0.806362  0.588645
			 0.607472  0.473154  0.638046
			 0.408795  0.518614  0.750950
			 0.151209  0.587929  0.794654
			 0.610990  0.401007  0.682558
			 0.317133  0.459908  0.829404
			-0.355248  0.297971  0.886009
			-0.966953 -0.203767 -0.153236
			-0.729420 -0.331126 -0.598584
			-0.521245 -0.315554 -0.792925
			-0.125620  0.068850 -0.989686
			 0.026420  0.989290 -0.143553
			 0.644188  0.458839  0.611955
			 0.537128  0.406663  0.738999
			 0.183331  0.675636  0.714077
			 0.519168  0.504684  0.689753
			-0.601564  0.254967  0.757042
			-0.961896 -0.088521 -0.258688
			-0.763099 -0.151879 -0.628182
			-0.610240 -0.263045 -0.747271
			-0.403383 -0.141545 -0.904017
			 0.184717  0.971306 -0.149814
			-0.029593  0.296046 -0.954715
			 0.591543  0.541338  0.597520
			 0.622377  0.502250  0.600326
			 0.412293  0.434301  0.800873
			 0.365986  0.646545  0.669353
			 0.196420  0.757931  0.622060
			-0.291784  0.684888  0.667675
			-0.794111  0.595307 -0.122463
			-0.753247  0.279368 -0.595460
			-0.167312  0.903085 -0.395529
			 0.241226  0.839446  0.486971
			 0.067542  0.891046  0.448860
		</DataArray>
	</PointData>
	<Points>
		<DataArray type="Float32" NumberOfComponents="3" format="ascii">
			-0.028113 -0.083883 -0.146926
			-0.029711 -0.087117 -0.151294
			-0.027082 -0.086653 -0.147455
			-0.024783 -0.083174 -0.142825
			-0.035071 -0.085365 -0.155497
			-0.032389 -0.082046 -0.148884
			-0.028791 -0.081420 -0.143590
			-0.028696 -0.086637 -0.151681
			-0.029406 -0.086631 -0.153534
			-0.032012 -0.087684 -0.153646
			-0.025834 -0.082615 -0.148995
			-0.025029 -0.079424 -0.146383
			-0.023303 -0.080250 -0.136837
			-0.024282 -0.080633 -0.136955
			-0.023349 -0.080229 -0.137089
			-0.034801 -0.088372 -0.156494
			-0.036279 -0.085622 -0.156986
			-0.038842 -0.083536 -0.156114
			-0.029590 -0.078548 -0.143098
			-0.033586 -0.079210 -0.149188
			-0.028389 -0.082735 -0.154770
			-0.030749 -0.086937 -0.155064
			-0.029693 -0.079897 -0.155361
			-0.026012 -0.076667 -0.145651
			-0.022696 -0.077404 -0.132591
			-0.032946 -0.084181 -0.157427
			-0.033515 -0.081058 -0.157908
			-0.038591 -0.083268 -0.157130
			-0.040800 -0.081045 -0.156219
			-0.033855 -0.076247 -0.147912
			-0.028896 -0.075640 -0.139015
			-0.042263 -0.078495 -0.155420
			-0.030913 -0.077107 -0.155438
			-0.025547 -0.073945 -0.140997
			-0.029385 -0.074094 -0.149879
			-0.023365 -0.074176 -0.133984
			-0.022866 -0.074901 -0.128196
			-0.025416 -0.075214 -0.132770
			-0.036030 -0.078714 -0.158519
			-0.039198 -0.080065 -0.158211
			-0.041899 -0.075342 -0.153702
			-0.032975 -0.072971 -0.145642
			-0.027483 -0.072201 -0.136396
			-0.038399 -0.076642 -0.157071
			-0.033780 -0.074828 -0.156550
			-0.030981 -0.074156 -0.153573
			-0.029984 -0.071277 -0.148535
			-0.025218 -0.071112 -0.137380
			-0.023013 -0.071036 -0.132219
			-0.025038 -0.072027 -0.131228
			-0.021598 -0.071782 -0.123961
			-0.038506 -0.073689 -0.155314
			-0.039331 -0.071385 -0.151356
			-0.033495 -0.070468 -0.142147
			-0.027546 -0.069975 -0.130008
			-0.034179 -0.072050 -0.154449
			-0.029653 -0.068601 -0.143938
			-0.035006 -0.069549 -0.151726
			-0.032010 -0.068734 -0.149138
			-0.024128 -0.068290 -0.131753
			-0.020116 -0.067767 -0.124753
			-0.016368 -0.067278 -0.118216
			-0.016896 -0.067778 -0.116450
			-0.019524 -0.068805 -0.116784
			-0.023851 -0.069668 -0.122470
			-0.039122 -0.071099 -0.152605
			-0.037311 -0.067903 -0.147458
			-0.037366 -0.068145 -0.146091
			-0.032497 -0.067542 -0.137397
			-0.029842 -0.067893 -0.128425
			-0.033835 -0.066617 -0.146572
			-0.030189 -0.065681 -0.143073
			-0.028466 -0.065585 -0.139275
			-0.024250 -0.065346 -0.129980
			-0.015427 -0.063707 -0.117620
			-0.018094 -0.065394 -0.113949
			-0.014086 -0.063683 -0.114344
			-0.023098 -0.067152 -0.115806
			-0.027765 -0.068169 -0.121403
			-0.035754 -0.064634 -0.143414
			-0.036914 -0.065488 -0.141072
			-0.031357 -0.065947 -0.124010
			-0.033503 -0.063832 -0.142646
			-0.021396 -0.061864 -0.123951
			-0.016156 -0.060437 -0.119435
			-0.012568 -0.059655 -0.115125
			-0.015001 -0.060997 -0.113001
			-0.021002 -0.063399 -0.113390
			-0.027545 -0.065372 -0.117848
			-0.033876 -0.061281 -0.139075
			-0.035380 -0.063701 -0.127867
			-0.034972 -0.061912 -0.137953
			-0.032295 -0.063493 -0.121277
			-0.028354 -0.060275 -0.131217
			-0.020881 -0.058425 -0.123627
			-0.014813 -0.056559 -0.119726
			-0.012127 -0.056086 -0.115805
			-0.012741 -0.056710 -0.113484
			-0.017642 -0.058975 -0.111921
			-0.023335 -0.060932 -0.114304
			-0.032750 -0.058172 -0.135141
			-0.035710 -0.059419 -0.134951
			-0.037837 -0.061624 -0.126667
			-0.037965 -0.060942 -0.131239
			-0.033309 -0.060709 -0.120783
			-0.019026 -0.054324 -0.123994
			-0.012484 -0.052376 -0.119393
			-0.012495 -0.053392 -0.113107
			-0.011491 -0.052527 -0.115918
			-0.016550 -0.055353 -0.111269
			-0.022776 -0.057656 -0.112863
			-0.038065 -0.057440 -0.132880
			-0.027535 -0.054030 -0.127182
			-0.042451 -0.060558 -0.124700
			-0.043041 -0.060259 -0.128066
			-0.041033 -0.058879 -0.131522
			-0.032387 -0.057479 -0.118131
			-0.015594 -0.049864 -0.122570
			-0.012250 -0.048909 -0.119965
			-0.010952 -0.048865 -0.116921
			-0.016277 -0.052155 -0.110069
			-0.012953 -0.050524 -0.111716
			-0.022624 -0.054491 -0.111758
			-0.038657 -0.054701 -0.131037
			-0.030947 -0.052031 -0.127938
			-0.044445 -0.058499 -0.122197
			-0.046157 -0.058590 -0.126013
			-0.033839 -0.054752 -0.118403
			-0.044758 -0.057546 -0.128935
			-0.013589 -0.046020 -0.120960
			-0.011623 -0.045451 -0.119476
			-0.010564 -0.045422 -0.116952
			-0.012097 -0.046992 -0.111099
			-0.022428 -0.051283 -0.110813
			-0.014426 -0.048316 -0.108823
			-0.042664 -0.053471 -0.128535
			-0.035467 -0.050679 -0.127503
			-0.014628 -0.043052 -0.121688
			-0.048611 -0.057377 -0.119437
			-0.049465 -0.057169 -0.122911
			-0.048057 -0.056063 -0.126189
			-0.032889 -0.051549 -0.115500
			-0.012432 -0.042374 -0.120292
			-0.010910 -0.042170 -0.117669
			-0.012276 -0.043928 -0.110221
			-0.014876 -0.045378 -0.107852
			-0.022555 -0.048321 -0.109165
			-0.044695 -0.051353 -0.126498
			-0.017917 -0.040716 -0.124223
			-0.035078 -0.047440 -0.126260
			-0.014441 -0.039624 -0.122133
			-0.039979 -0.051193 -0.115445
			-0.051666 -0.055528 -0.118347
			-0.052680 -0.055353 -0.122026
			-0.048332 -0.054406 -0.116805
			-0.051427 -0.054527 -0.123963
			-0.011652 -0.039174 -0.117804
			-0.012263 -0.040395 -0.111770
			-0.014733 -0.042205 -0.106823
			-0.017310 -0.043330 -0.106417
			-0.039215 -0.043039 -0.123418
			-0.054740 -0.049579 -0.122417
			-0.027004 -0.037895 -0.124204
			-0.016982 -0.033796 -0.124081
			-0.013664 -0.032753 -0.122093
			-0.051060 -0.049385 -0.114217
			-0.037981 -0.044292 -0.112471
			-0.054282 -0.050429 -0.115954
			-0.056231 -0.050487 -0.120578
			-0.011035 -0.032444 -0.117297
			-0.011594 -0.033459 -0.112408
			-0.014497 -0.035750 -0.105575
			-0.016933 -0.036895 -0.104686
			-0.056448 -0.043941 -0.121063
			-0.020610 -0.028767 -0.123846
			-0.014980 -0.026703 -0.122299
			-0.054590 -0.044663 -0.111816
			-0.026847 -0.033947 -0.107567
			-0.058325 -0.045429 -0.116593
			-0.058875 -0.045160 -0.119677
			-0.009720 -0.025895 -0.113880
			-0.011053 -0.025940 -0.117009
			-0.009311 -0.026487 -0.109152
			-0.012601 -0.028466 -0.105250
			-0.016609 -0.030381 -0.103581
			-0.059587 -0.039207 -0.117735
			-0.035966 -0.028866 -0.121684
			-0.057581 -0.038141 -0.119236
			-0.017607 -0.021223 -0.122306
			-0.013964 -0.020011 -0.120535
			-0.054221 -0.038492 -0.108464
			-0.058179 -0.039474 -0.112470
			-0.032514 -0.029715 -0.107588
			-0.017276 -0.024125 -0.103400
			-0.011129 -0.019492 -0.116516
			-0.008473 -0.019134 -0.111958
			-0.008370 -0.019567 -0.108999
			-0.010983 -0.021092 -0.106192
			-0.060593 -0.033550 -0.114700
			-0.023461 -0.017088 -0.122190
			-0.057830 -0.032065 -0.116876
			-0.016473 -0.014351 -0.121360
			-0.011766 -0.013202 -0.116478
			-0.049794 -0.030625 -0.105293
			-0.056337 -0.033219 -0.105884
			-0.059070 -0.033830 -0.109063
			-0.016659 -0.016879 -0.106113
			-0.007661 -0.012392 -0.111019
			-0.008382 -0.013023 -0.108944
			-0.061103 -0.027441 -0.113207
			-0.062200 -0.028221 -0.111160
			-0.033597 -0.014726 -0.121998
			-0.023652 -0.010568 -0.122450
			-0.053768 -0.023818 -0.116997
			-0.015614 -0.007689 -0.119809
			-0.009406 -0.005849 -0.115384
			-0.024421 -0.013563 -0.105774
			-0.058218 -0.027751 -0.103906
			-0.060549 -0.028318 -0.106339
			-0.008706 -0.006592 -0.108975
			-0.006577 -0.005332 -0.111378
			-0.059783 -0.023547 -0.113661
			-0.063867 -0.025743 -0.110436
			-0.044901 -0.016529 -0.119280
			-0.020413 -0.005768 -0.123627
			-0.014299 -0.003856 -0.119895
			-0.009087 -0.002378 -0.115770
			-0.007247 -0.002076 -0.112945
			-0.020681 -0.008650 -0.106384
			-0.046853 -0.019575 -0.105319
			-0.061253 -0.025832 -0.103210
			-0.063088 -0.026203 -0.105592
			-0.007670 -0.002448 -0.111705
			-0.012411 -0.004932 -0.108375
			-0.056746 -0.018794 -0.115068
			-0.065198 -0.023115 -0.109793
			-0.065931 -0.023852 -0.107075
			-0.043321 -0.012450 -0.120213
			-0.024264 -0.003893 -0.124736
			-0.019291 -0.002001 -0.123795
			-0.009386  0.000960 -0.116901
			-0.007830  0.001130 -0.113976
			-0.017548 -0.003779 -0.108280
			-0.049990 -0.017746 -0.104323
			-0.062085 -0.023334 -0.100469
			-0.064144 -0.023991 -0.101649
			-0.010818 -0.000590 -0.110918
			-0.062215 -0.018215 -0.112248
			-0.066955 -0.020731 -0.108713
			-0.068359 -0.021804 -0.105629
			-0.036555 -0.005984 -0.122746
			-0.021967  0.000354 -0.124887
			-0.015154  0.002737 -0.122293
			-0.010260  0.003997 -0.117628
			-0.009786  0.003971 -0.116250
			-0.010229  0.003333 -0.113413
			-0.013428  0.001517 -0.110300
			-0.033575 -0.007264 -0.107169
			-0.053347 -0.015882 -0.104096
			-0.066415 -0.022128 -0.098643
			-0.067823 -0.022498 -0.099939
			-0.055567 -0.011627 -0.115843
			-0.068509 -0.018290 -0.107475
			-0.071725 -0.020474 -0.102106
			-0.038431 -0.003485 -0.122687
			-0.024240  0.002658 -0.124637
			-0.015090  0.006070 -0.122466
			-0.011825  0.006975 -0.119756
			-0.012884  0.005389 -0.112597
			-0.023935  0.000431 -0.109998
			-0.015984  0.003781 -0.110515
			-0.035144 -0.004519 -0.107859
			-0.056750 -0.014060 -0.103734
			-0.070096 -0.020752 -0.096214
			-0.071354 -0.021166 -0.096849
			-0.064176 -0.012725 -0.110618
			-0.050365 -0.005730 -0.118826
			-0.072202 -0.017301 -0.102666
			-0.075095 -0.019378 -0.097147
			-0.031829  0.002640 -0.123525
			-0.021256  0.007011 -0.123690
			-0.015039  0.009259 -0.121780
			-0.014411  0.008999 -0.118554
			-0.016965  0.007077 -0.113123
			-0.020075  0.005521 -0.111396
			-0.051226 -0.008197 -0.105682
			-0.062167 -0.013372 -0.101459
			-0.073105 -0.019314 -0.092456
			-0.074778 -0.019987 -0.092547
			-0.054492 -0.004455 -0.116915
			-0.066431 -0.010453 -0.110115
			-0.038506  0.002962 -0.122194
			-0.074641 -0.015332 -0.100751
			-0.076778 -0.017309 -0.093921
			-0.023320  0.009535 -0.124266
			-0.018363  0.011429 -0.123371
			-0.017755  0.011170 -0.120215
			-0.019873  0.009389 -0.114550
			-0.035685  0.002168 -0.110037
			-0.023304  0.007659 -0.112551
			-0.055675 -0.006699 -0.105977
			-0.070572 -0.014479 -0.095660
			-0.064297 -0.011000 -0.101259
			-0.074744 -0.016792 -0.091939
			-0.076432 -0.017540 -0.091592
			-0.062295 -0.004851 -0.114000
			-0.048173  0.002053 -0.120848
			-0.069094 -0.008742 -0.107167
			-0.027833  0.011004 -0.124543
			-0.077031 -0.013610 -0.097173
			-0.074528 -0.011853 -0.101707
			-0.077433 -0.014784 -0.090898
			-0.022087  0.013338 -0.124372
			-0.021437  0.013413 -0.123173
			-0.022441  0.012052 -0.117278
			-0.025716  0.010151 -0.113822
			-0.045216  0.001413 -0.109310
			-0.064867 -0.007771 -0.102408
			-0.057046 -0.003887 -0.106572
			-0.073585 -0.012803 -0.093390
			-0.076537 -0.014506 -0.090337
			-0.056278  0.001615 -0.118437
			-0.067695 -0.004466 -0.109798
			-0.030935  0.013126 -0.125270
			-0.075933 -0.009412 -0.100084
			-0.025799  0.015254 -0.125378
			-0.077796 -0.010956 -0.095239
			-0.077741 -0.011706 -0.090439
			-0.025179  0.015304 -0.124109
			-0.025768  0.014030 -0.117688
			-0.027644  0.012827 -0.114996
			-0.055267  0.000462 -0.108684
			-0.071671 -0.008374 -0.095648
			-0.064209 -0.003991 -0.103840
			-0.076528 -0.011227 -0.090315
			-0.064521  0.000777 -0.113898
			-0.055882  0.005202 -0.119350
			-0.036193  0.014221 -0.125127
			-0.074159 -0.004856 -0.103495
			-0.068894 -0.001780 -0.109176
			-0.029967  0.016854 -0.125589
			-0.077527 -0.007312 -0.096826
			-0.028593  0.016905 -0.122393
			-0.077324 -0.008187 -0.090859
			-0.029070  0.015987 -0.117904
			-0.031632  0.014496 -0.115180
			-0.057269  0.002949 -0.108878
			-0.064563 -0.000736 -0.104600
			-0.075845 -0.007532 -0.091161
			-0.069379 -0.003636 -0.098864
			-0.065022  0.004012 -0.114908
			-0.040452  0.015732 -0.125011
			-0.057808  0.007822 -0.120173
			-0.034681  0.018187 -0.125530
			-0.076254 -0.003258 -0.098388
			-0.073095 -0.000828 -0.105432
			-0.033371  0.018294 -0.122852
			-0.076224 -0.004243 -0.092188
			-0.034309  0.017079 -0.117692
			-0.057166  0.006493 -0.110260
			-0.065072  0.002475 -0.105469
			-0.072785 -0.002327 -0.095313
			-0.075211 -0.003838 -0.092119
			-0.072756  0.003006 -0.108021
			-0.063383  0.008382 -0.117506
			-0.068029  0.005717 -0.112804
			-0.039477  0.019296 -0.124289
			-0.038612  0.019526 -0.123515
			-0.055568  0.012316 -0.122000
			-0.075651 -0.000395 -0.094268
			-0.076039  0.000151 -0.098648
			-0.037949  0.019362 -0.120800
			-0.039304  0.018389 -0.118211
			-0.063924  0.006665 -0.108209
			-0.056541  0.010525 -0.113347
			-0.067673  0.004352 -0.103406
			-0.074015  0.000441 -0.095281
			-0.075813  0.004105 -0.102276
			-0.072331  0.006760 -0.109888
			-0.064753  0.011201 -0.118141
			-0.068548  0.008976 -0.114007
			-0.047876  0.018674 -0.121494
			-0.049267  0.018264 -0.122497
			-0.056800  0.015077 -0.121927
			-0.075258  0.003510 -0.097155
			-0.048104  0.018209 -0.119184
			-0.067911  0.007990 -0.106244
			-0.065048  0.009825 -0.110336
			-0.053912  0.015334 -0.116151
			-0.072562  0.005010 -0.099596
			-0.074150  0.003994 -0.097327
			-0.075428  0.006913 -0.098361
			-0.076340  0.007179 -0.102340
			-0.073095  0.009866 -0.110761
			-0.066919  0.013583 -0.118098
			-0.059557  0.017136 -0.121384
			-0.054099  0.019206 -0.120313
			-0.068741  0.011124 -0.107462
			-0.073723  0.007818 -0.099627
			-0.057186  0.017561 -0.117967
			-0.066625  0.012529 -0.110792
			-0.076196  0.010157 -0.100108
			-0.076379  0.011002 -0.105830
			-0.071879  0.014131 -0.113783
			-0.068514  0.016063 -0.117211
			-0.065463  0.017817 -0.120320
			-0.060301  0.019861 -0.119844
			-0.062799  0.018998 -0.120859
			-0.068328  0.015156 -0.111092
			-0.073206  0.011920 -0.103425
			-0.075066  0.010685 -0.100498
			-0.066127  0.016618 -0.114556
			-0.061266  0.019325 -0.118970
			-0.076593  0.013449 -0.101204
			-0.076098  0.014420 -0.105974
			-0.069401  0.019110 -0.118030
			-0.065632  0.020976 -0.120005
			-0.074476  0.014903 -0.104835
			-0.067545  0.019663 -0.116726
		</DataArray>
	</Points>
			<Polys>
				<DataArray type="Int32" Name="connectivity" format="ascii">
					0 1 2 
					3 0 2 
					0 4 1 
					0 5 4 
					6 5 0 
					6 0 3 
					2 1 7 
					1 8 7 
					8 1 9 
					9 1 4 
					2 10 3 
					10 2 7 
					11 3 10 
					3 12 13 
					14 12 3 
					13 6 3 
					3 11 14 
					9 4 15 
					4 16 15 
					4 5 17 
					16 4 17 
					6 18 5 
					19 17 5 
					18 19 5 
					13 18 6 
					8 20 7 
					7 20 10 
					21 8 9 
					20 8 21 
					15 21 9 
					22 11 10 
					10 20 22 
					23 14 11 
					23 11 22 
					24 13 12 
					14 24 12 
					24 18 13 
					14 23 24 
					15 16 25 
					21 15 25 
					26 25 16 
					17 27 16 
					27 26 16 
					17 19 28 
					27 17 28 
					18 29 19 
					30 29 18 
					30 18 24 
					19 29 31 
					28 19 31 
					21 25 20 
					22 20 25 
					25 26 22 
					32 23 22 
					22 26 32 
					33 24 23 
					32 34 23 
					23 34 33 
					24 35 36 
					36 37 24 
					37 30 24 