<?xml version="1.0"?>
<VTKFile type="PolyData" version="0.1" byte_order="LittleEndian" compressor="vtkZLibDataCompressor">
	<PolyData>
		<Piece NumberOfPoints="835" NumberOfVerts="0" NumberOfLines="0" NumberOfStrips="0" NumberOfPolys="1653">
		<PointData Normals="Normals">
		<DataArray type="Float32" Name="Normals" NumberOfComponents="3" format="ascii">
			-0.530188 -0.164939 -0.831683
			-0.615265 -0.150841 -0.773754
			-0.671859 -0.194510 -0.714683
			-0.488984 -0.094921 -0.867113
			-0.592817 -0.206320 -0.778460
			-0.533431 -0.106545 -0.839106
			-0.479700 -0.059029 -0.875445
			-0.788854  0.102858 -0.605912
			-0.868938 -0.276062 -0.410776
			-0.723480 -0.295641 -0.623838
			-0.749803 -0.072702 -0.657655
			-0.818220 -0.168951 -0.549520
			-0.376357 -0.058640 -0.924617
			-0.207598 -0.092017 -0.973877
			-0.443255 -0.081772 -0.892658
			-0.587744  0.004288 -0.809035
			 0.091373  0.301383 -0.949115
			 0.647673  0.355878 -0.673700
			-0.852590 -0.336107 -0.400154
			-0.430012 -0.781074  0.452783
			-0.768696 -0.408325 -0.492318
			-0.358062 -0.123359 -0.925513
			-0.810101 -0.586216 -0.009386
			-0.813037 -0.477200 -0.333544
			-0.664093 -0.313055 -0.678953
			-0.851414 -0.219662 -0.476280
			-0.382018 -0.596431  0.705927
			 0.292194  0.245205 -0.924390
			 0.759462  0.347705 -0.549836
			-0.344915  0.080731 -0.935156
			-0.777702 -0.172536 -0.604492
			 0.929967  0.367432 -0.012414
			 0.901062  0.350045 -0.256039
			 0.864105  0.413231  0.287337
			 0.848505  0.335438  0.409293
			 0.592738 -0.024456  0.805024
			 0.401681 -0.321136  0.857627
			 0.439857 -0.386967  0.810421
			-0.691983 -0.477909 -0.541076
			 0.067068 -0.614432  0.786114
			 0.514639 -0.387159  0.765019
			 0.625005  0.356634 -0.694392
			-0.518057 -0.249498 -0.818149
			-0.052180  0.004014 -0.998630
			-0.480568 -0.562948  0.672416
			 0.228088 -0.401622  0.886947
			-0.802065 -0.515628 -0.301364
			-0.747599 -0.348613 -0.565301
			-0.739897 -0.646313  0.186632
			 0.742648  0.047193  0.668018
			 0.486565 -0.167828  0.857373
			 0.916923  0.334220  0.218057
			 0.914495  0.366709  0.170949
			 0.129991  0.223744 -0.965940
			-0.570078 -0.070297 -0.818578
			-0.840775 -0.444764 -0.308679
			 0.608459  0.071970  0.790315
			 0.958478  0.285114 -0.005506
			 0.848979  0.334689  0.408924
			 0.862359  0.254998  0.437394
			 0.843390 -0.015825  0.537069
			 0.684451 -0.194728  0.702572
			 0.277700  0.113172  0.953979
			 0.497775  0.172701  0.849938
			 0.469267 -0.115720  0.875441
			 0.414507 -0.386259  0.824007
			 0.634534 -0.079335  0.768812
			 0.880230  0.403406  0.249919
			 0.821492  0.426352 -0.378649
			-0.615410 -0.418251 -0.668085
			-0.177003 -0.125554 -0.976169
			 0.565870  0.310573 -0.763764
			 0.481285 -0.018971  0.876359
			 0.420816  0.007202  0.907118
			-0.488379 -0.576515  0.655070
			-0.669495 -0.640563 -0.376106
			-0.218027 -0.641276  0.735683
			 0.888917  0.261692  0.375957
			 0.822211  0.180520  0.539798
			 0.860084  0.309680 -0.405406
			-0.361031  0.087703 -0.928421
			-0.825166 -0.289461 -0.485091
			-0.567161 -0.695054  0.441847
			 0.565436 -0.202925  0.799439
			 0.127786 -0.975980  0.176445
			 0.488258  0.527410  0.695301
			 0.768647  0.237097  0.594110
			 0.878400  0.366584  0.306643
			 0.920142  0.389873  0.036562
			-0.399774 -0.351815 -0.846408
			-0.538703 -0.567038 -0.623111
			 0.462584  0.234057 -0.855122
			-0.005024 -0.053485 -0.998556
			 0.876438  0.426880 -0.222778
			 0.758583  0.245075  0.603730
			 0.673856  0.227681  0.702908
			 0.320366  0.025840  0.946941
			-0.425262 -0.647640  0.632230
			-0.639710 -0.764974 -0.074738
			 0.519014 -0.186959  0.834069
			 0.510559  0.407217 -0.757300
			-0.634585 -0.057711 -0.770696
			-0.741303 -0.572710  0.349962
			 0.849562  0.293401  0.438361
			 0.883705  0.364318  0.293833
			-0.517629 -0.471445 -0.714002
			-0.197951 -0.200148 -0.959561
			-0.621367 -0.625074 -0.472426
			 0.830803  0.417816 -0.367690
			 0.356358  0.202819 -0.912071
			 0.891350  0.410781  0.191716
			 0.752859  0.288871  0.591403
			 0.553600  0.207234  0.806586
			 0.197026 -0.033669  0.979820
			-0.380771 -0.446626  0.809654
			-0.357748 -0.403572  0.842108
			-0.628994 -0.648856  0.428196
			 0.480242 -0.074408  0.873974
			 0.717390  0.589098 -0.371909
			-0.547684  0.081418 -0.832715
			-0.842787 -0.469472  0.263260
			 0.724456  0.320547  0.610256
			-0.662394 -0.514367 -0.544666
			-0.486577 -0.444165 -0.752303
			 0.359587  0.158580 -0.919538
			-0.112634 -0.191119 -0.975083
			-0.775606 -0.601626  0.191002
			 0.791616  0.410739 -0.452368
			 0.867642  0.417531  0.269934
			 0.473634  0.153128  0.867308
			 0.089408 -0.074550  0.993201
			 0.040482 -0.204745  0.977978
			-0.433961 -0.369465  0.821689
			 0.464577 -0.074067  0.882430
			 0.908356  0.418029 -0.011895
			 0.141723  0.339551 -0.929849
			-0.578550  0.033394 -0.814963
			-0.837002 -0.496964  0.229030
			 0.687075  0.280058  0.670444
			-0.822256 -0.555987 -0.121544
			-0.597287 -0.494504 -0.631438
			-0.378526 -0.344774 -0.858981
			 0.321024  0.135220 -0.937368
			 0.699515  0.390923 -0.598211
			-0.027273 -0.062868 -0.997649
			-0.593523 -0.335023  0.731772
			 0.865437  0.498256  0.052528
			 0.759802  0.395788  0.515803
			 0.436992  0.076881  0.896173
			-0.329240 -0.213232  0.919855
			 0.308616  0.002170  0.951184
			-0.601032 -0.169556  0.781033
			 0.385430 -0.203005  0.900129
			 0.857465  0.463297 -0.223850
			-0.060495  0.274102 -0.959796
			-0.823819 -0.536918  0.181775
			-0.636253  0.009513 -0.771422
			 0.604176  0.244555  0.758396
			-0.734597 -0.353547  0.579112
			-0.733217 -0.516271 -0.442559
			-0.567412 -0.445831 -0.692300
			-0.036794 -0.009256 -0.999280
			-0.333390 -0.273111 -0.902364
			 0.241586  0.202342 -0.949049
			 0.584331  0.368040 -0.723259
			 0.844254  0.521917 -0.121811
			 0.771647  0.482115  0.414881
			 0.667980  0.351777  0.655787
			-0.202750 -0.084808  0.975551
			 0.467711  0.170658  0.867250
			-0.162428 -0.512576  0.843138
			 0.699582 -0.014808  0.714399
			 0.562439  0.446616 -0.695843
			-0.494179  0.116423 -0.861530
			-0.869160 -0.494426 -0.010193
			-0.319719 -0.150349  0.935508
			-0.804188 -0.476847  0.354822
			-0.685154 -0.490673 -0.538335
			-0.498811 -0.340904 -0.796851
			-0.102929 -0.004984 -0.994676
			 0.195212  0.230329 -0.953331
			 0.503692  0.369046 -0.781088
			 0.792939  0.512763 -0.329122
			 0.799118  0.515327  0.309594
			 0.682079  0.382755  0.623111
			 0.315394  0.131125  0.939858
			-0.432536 -0.553347  0.711843
			 0.351283 -0.343616  0.870935
			 0.979456  0.198611  0.034913
			 0.091481  0.184026 -0.978655
			-0.947059 -0.256130 -0.193588
			-0.575525  0.048997 -0.816315
			-0.227668 -0.101459  0.968439
			-0.568979 -0.322917  0.756298
			-0.809564 -0.585858  0.037101
			-0.650170 -0.485314 -0.584593
			-0.489449 -0.302310 -0.817954
			-0.129193 -0.022816 -0.991357
			 0.251006  0.274107 -0.928365
			 0.508353  0.404314 -0.760333
			 0.821054  0.549436 -0.154886
			 0.781759  0.481833  0.395842
			 0.653831  0.387711  0.649758
			 0.344484  0.209665  0.915080
			 0.491370 -0.226625  0.840950
			-0.646087 -0.402821  0.648312
			 0.868013  0.267946 -0.418042
			-0.251986  0.058167 -0.965981
			-0.898919 -0.140729 -0.414897
			 0.381209  0.305586  0.872524
			-0.226589 -0.063595  0.971912
			-0.417626 -0.260711  0.870413
			-0.519487 -0.462652  0.718392
			-0.790044 -0.587972 -0.173547
			-0.631362 -0.414370 -0.655499
			-0.468398 -0.289675 -0.834681
			-0.133530 -0.012400 -0.990967
			 0.265297  0.323043 -0.908438
			 0.653526  0.584534 -0.480857
			 0.799169  0.573221  0.180962
			 0.729098  0.458465  0.508159
			 0.285432 -0.309566  0.907027
			 0.914657  0.042397  0.402002
			-0.840890 -0.385153  0.380213
			 0.573388  0.311558 -0.757732
			-0.458559  0.166314 -0.872963
			 0.506067  0.375543  0.776443
			-0.060431  0.086934  0.994379
			-0.267721 -0.328517  0.905761
			-0.719842 -0.678542  0.146317
			-0.678592 -0.455450 -0.576262
			-0.540118 -0.337008 -0.771167
			-0.173948 -0.043892 -0.983776
			 0.274257  0.278722 -0.920378
			 0.606134  0.577600 -0.546790
			 0.794521  0.594541  0.123517
			 0.745826  0.421671  0.515691
			 0.148657 -0.338557  0.929129
			 0.864761  0.078911  0.495945
			 0.689614  0.315154 -0.652005
			-0.973583 -0.223151 -0.048375
			-0.357228  0.280508 -0.890900
			 0.091761  0.118573  0.988696
			 0.563044  0.387847  0.729764
			-0.124057 -0.167643  0.978011
			-0.426054 -0.496709  0.756147
			-0.741365 -0.659695 -0.123208
			-0.604808 -0.454072 -0.654237
			-0.432938 -0.194926 -0.880096
			-0.083199  0.118369 -0.989478
			 0.247827  0.333093 -0.909742
			 0.553851  0.555282 -0.620412
			 0.744686  0.659272 -0.103938
			 0.770748  0.559146  0.305456
			 0.720853 -0.066419  0.689898
			-0.028612 -0.471938  0.881168
			 0.951467  0.209250 -0.225667
			 0.214687  0.272901 -0.937782
			-0.476083  0.256910 -0.841036
			-0.877754 -0.342426  0.335100
			 0.470569  0.343899  0.812588
			 0.082203  0.099755  0.991611
			-0.102131 -0.024591  0.994467
			 0.737118  0.536684  0.410642
			-0.151601 -0.171176  0.973507
			-0.618104 -0.533388  0.577447
			-0.733195 -0.566862 -0.375623
			-0.575674 -0.434009 -0.692990
			-0.445032 -0.230681 -0.865293
			-0.150211  0.066505 -0.986414
			 0.197960  0.302092 -0.932498
			 0.536242  0.499551 -0.680362
			 0.778462  0.610623 -0.145386
			 0.915165  0.180127 -0.360593
			 0.036860 -0.379899  0.924293
			 0.782521 -0.025382  0.622107
			 0.195763  0.281077 -0.939507
			-0.835376  0.142650 -0.530846
			-0.277304  0.276093 -0.920258
			-0.652624 -0.437036  0.618936
			 0.643325  0.472905  0.602074
			 0.163511  0.136348  0.977074
			-0.160060 -0.142076  0.976829
			 0.821339  0.568182  0.050718
			-0.810489 -0.520124  0.269404
			-0.728563 -0.460152 -0.507401
			-0.529359 -0.270216 -0.804215
			-0.308984  0.003908 -0.951059
			 0.038042  0.232589 -0.971831
			 0.414492  0.422115 -0.806235
			 0.725524  0.541760 -0.424395
			 0.936321  0.196947 -0.290715
			-0.121601 -0.408023  0.904837
			 0.573956 -0.162635  0.802574
			 0.235918  0.278530 -0.931002
			-0.320018  0.216956 -0.922235
			-0.977431 -0.208169 -0.035987
			 0.791405  0.542417  0.281890
			 0.527704  0.388832  0.755208
			 0.035243 -0.031746  0.998874
			 0.073386  0.093024  0.992956
			-0.130903 -0.062351  0.989433
			-0.822986 -0.384105  0.418518
			 0.721243  0.577179 -0.382979
			-0.802713 -0.406686 -0.436185
			-0.580863 -0.283911 -0.762884
			-0.346447 -0.025280 -0.937729
			-0.057426  0.234822 -0.970341
			 0.341665  0.448795 -0.825741
			 0.713770 -0.060993  0.697720
			 0.759843  0.209161 -0.615541
			-0.253208 -0.277049  0.926892
			-0.053545  0.174196 -0.983254
			-0.970345 -0.132423 -0.202223
			 0.790483  0.592878  0.153731
			 0.596666  0.414519  0.687142
			 0.238104  0.195605  0.951339
			-0.028386  0.014570  0.999491
			 0.045801  0.021862  0.998711
			-0.567697 -0.155973  0.808327
			-0.937499 -0.346618 -0.030846
			 0.608266  0.616279 -0.500213
			-0.767820 -0.288264 -0.572150
			-0.359267 -0.077873 -0.929980
			-0.036292  0.265795 -0.963346
			 0.244480  0.510337 -0.824491
			 0.993930  0.070598 -0.084381
			 0.445093 -0.129801  0.886027
			 0.263356  0.161965 -0.951005
			-0.439623 -0.232372  0.867603
			-0.932255 -0.076231 -0.353679
			 0.636397  0.539179  0.551621
			 0.589069  0.713299 -0.379740
			 0.226022  0.192351  0.954943
			-0.020616 -0.004907  0.999775
			 0.123604  0.004019  0.992323
			-0.328610 -0.135066  0.934758
			 0.201106  0.027012  0.979197
			-0.918482 -0.227462  0.323499
			-0.576225 -0.095990  0.811635
			-0.574567 -0.102190  0.812053
			-0.922024 -0.259612 -0.287181
			-0.835469 -0.102038 -0.539981
			-0.605317 -0.048011 -0.794535
			-0.360079  0.031323 -0.932396
			-0.090261  0.248084 -0.964525
			 0.218570  0.526963 -0.821302
			 0.051717  0.415974 -0.907905
			 0.055296  0.408843 -0.910928
			 0.989891  0.112788 -0.085998
			 0.318653 -0.086331  0.943932
			 0.329394  0.183368 -0.926216
			-0.562023 -0.184044  0.806385
			-0.889541 -0.074647 -0.450715
			 0.713552  0.699474 -0.039746
			 0.612927  0.508333  0.604911
			 0.445173  0.621636 -0.644507
			 0.442303  0.605304 -0.661797
			 0.368435  0.152289  0.917095
			 0.097611  0.027631  0.994841
			 0.085924  0.084061  0.992749
			 0.090982  0.025810  0.995518
			 0.180381 -0.031069  0.983106
			 0.205326  0.016627  0.978552
			-0.242005 -0.161900  0.956672
			-0.433379 -0.414881  0.800036
			 0.204834  0.018888  0.978614
			-0.632871  0.188013  0.751083
			-0.915420 -0.139390  0.377595
			-0.147405 -0.837382  0.526368
			-0.647252 -0.232165  0.726061
			-0.825031 -0.218655 -0.521070
			-0.957644  0.242226 -0.155708
			-0.714846 -0.182397 -0.675076
			-0.509650 -0.243661 -0.825158
			-0.280659  0.105735 -0.953966
			-0.211788 -0.073721 -0.974531
			 0.025139  0.252527 -0.967263
			 0.156411  0.314496 -0.936284
			 0.055041  0.407060 -0.911741
			 0.103965  0.415625 -0.903575
			 0.408288  0.556129 -0.723894
			 0.996204  0.085932 -0.013884
			 0.148964 -0.101308  0.983639
			 0.373811  0.163134 -0.913046
			-0.658970 -0.258842  0.706229
			-0.834585 -0.177016 -0.521663
			 0.601568  0.610897 -0.514704
			 0.557934  0.624833 -0.546162
			 0.706260  0.575291  0.412598
			 0.758814  0.520196  0.391915
			 0.740526  0.532071  0.410515
			 0.656872  0.509757  0.555578
			 0.642668  0.346719  0.683201
			 0.517556  0.588727 -0.620916
			 0.565309  0.227387  0.792919
			 0.346490  0.010289  0.937997
			 0.386371  0.020574  0.922114
			 0.330015  0.076567  0.940866
			 0.313547  0.034207  0.948956
			 0.064033  0.201443  0.977405
			 0.157034 -0.104973  0.981998
			 0.094319 -0.895921  0.434084
			-0.470616 -0.418098  0.776991
			-0.397885 -0.326019  0.857554
			-0.404133 -0.384662  0.829887
			-0.851552 -0.474976  0.221940
			-0.860726 -0.433381 -0.267081
			-0.780230 -0.359030  0.512191
			-0.673669 -0.323716 -0.664363
			-0.504768 -0.258808 -0.823546
			 0.000000  0.000000  0.000000
			-0.190539 -0.555487 -0.809401
			-0.220358 -0.001465 -0.975418
			 0.039191  0.227827 -0.972913
			 0.310691  0.471114 -0.825543
			 0.700800  0.517862 -0.490610
			 0.661594  0.561679 -0.496800
			 0.972065  0.196212 -0.128807
			 0.384485  0.082531  0.919435
			-0.595472 -0.197411  0.778744
			 0.345286  0.150035 -0.926427
			-0.829970 -0.048845 -0.555665
			 0.498412  0.631310 -0.594165
			 0.689892  0.522559  0.500980
			 0.764853  0.574597  0.291271
			-0.631979 -0.751923  0.187655
			-0.091227  0.337756 -0.936802
			-0.722915 -0.635398  0.271409
			 0.561411  0.702663 -0.437130
			 0.656464  0.362853  0.661357
			 0.431366  0.056478  0.900407
			 0.532608  0.091215  0.841433
			 0.393107  0.022576  0.919216
			 0.373320 -0.020936  0.927466
			 0.311817 -0.059425  0.948282
			-0.750262 -0.401903  0.524957
			-0.801342 -0.397772  0.446797
			-0.129496 -0.253026  0.958754
			-0.381024 -0.215566  0.899084
			-0.773622 -0.427980  0.467270
			-0.280253 -0.186101  0.941714
			-0.907297 -0.357415 -0.221510
			-0.782178 -0.214723 -0.584885
			-0.560800 -0.079100 -0.824164
			-0.239637  0.150064 -0.959195
			 0.077360  0.370084 -0.925772
			 0.285653  0.540811 -0.791155
			 0.987860  0.107114  0.112515
			 0.555152  0.113812 -0.823925
			 0.152424  0.058563  0.986579
			-0.747150 -0.131344  0.651549
			-0.440551  0.004824 -0.897715
			 0.738186  0.658300  0.147385
			 0.243782  0.548095 -0.800102
			 0.537673  0.664751 -0.518665
			 0.678630  0.394755  0.619379
			 0.639505  0.147217  0.754560
			 0.438266 -0.085688  0.894752
			 0.255840 -0.116425  0.959683
			-0.413270 -0.333941  0.847167
			-0.878831 -0.398917  0.261764
			-0.802321 -0.331862  0.496133
			-0.310187 -0.185282  0.932445
			-0.906356 -0.376670 -0.191411
			-0.201766 -0.210028  0.956650
			-0.741847 -0.415661  0.526203
			-0.818423 -0.249870 -0.517444
			-0.651843 -0.101717 -0.751501
			-0.317875  0.129564 -0.939238
			 0.052988  0.379432 -0.923701
			 0.936508  0.195832  0.290867
			 0.654078  0.090872 -0.750949
			-0.000159  0.086644  0.996239
			-0.728797 -0.149066 -0.668307
			-0.776411 -0.148469  0.612489
			 0.760311  0.634991  0.136799
			 0.236495  0.496812 -0.835014
			 0.482920  0.612341 -0.625961
			 0.692696  0.377200  0.614729
			 0.596753  0.135440  0.790912
			 0.287258 -0.198444  0.937071
			-0.021580 -0.335892  0.941653
			-0.694031 -0.520902  0.496973
			-0.879295 -0.471737  0.065602
			-0.652535 -0.434921  0.620518
			-0.118454 -0.252175  0.960404
			-0.895261 -0.310628 -0.319403
			-0.796098 -0.443171  0.412100
			-0.024649 -0.279414  0.959854
			-0.761858 -0.170790 -0.624823
			-0.534246 -0.003739 -0.845321
			 0.052847  0.372511 -0.926522
			-0.193483  0.227629 -0.954332
			 0.963220  0.230686 -0.137807
			 0.528201  0.027585 -0.848671
			 0.361508  0.184967  0.913838
			-0.700881 -0.118010  0.703448
			-0.704005 -0.212204 -0.677751
			 0.685448  0.683823 -0.250093
			 0.772949  0.524151  0.357513
			 0.210870  0.487571 -0.847236
			 0.321643  0.566128 -0.758976
			 0.683912  0.324653  0.653349
			 0.432601 -0.080453  0.897989
			-0.215992 -0.472057  0.854699
			-0.806354 -0.560603  0.188459
			-0.811335 -0.541564  0.220100
			-0.245231 -0.470054  0.847886
			-0.861525 -0.293006 -0.414634
			-0.475626 -0.558539  0.679569
			-0.626485 -0.073181 -0.775990
			-0.271398  0.218941 -0.937234
			 0.026361  0.402207 -0.915169
			 0.975303  0.219273  0.026529
			 0.557803  0.026874 -0.829538
			 0.027019  0.120486  0.992347
			-0.900842 -0.109601 -0.420084
			-0.729660 -0.008067  0.683763
			 0.654644  0.662852 -0.363412
			 0.804055  0.463122  0.372844
			 0.037665  0.464572 -0.884734
			 0.249719  0.537943 -0.805144
			 0.557643  0.028024  0.829607
			-0.023027 -0.384734  0.922740
			-0.664778 -0.581960  0.468395
			-0.682124 -0.636369  0.360197
			-0.056703 -0.518602  0.853134
			-0.715512 -0.075489 -0.694510
			-0.896328 -0.252304 -0.364606
			-0.736037 -0.527498  0.424258
			 0.011573 -0.408314  0.912768
			-0.359773  0.227050 -0.904993
			 0.817531  0.079141 -0.570421
			 0.816625  0.098413  0.568716
			 0.420139 -0.039830 -0.906585
			-0.211365 -0.032333  0.976872
			-0.862677  0.096256  0.496512
			-0.629221 -0.069816 -0.774084
			 0.661370  0.669921 -0.337336
			 0.815010  0.501494  0.290281
			 0.766369  0.266696  0.584425
			-0.032161  0.446780 -0.894066
			 0.196549  0.579993 -0.790554
			-0.121625 -0.416103  0.901147
			 0.447421 -0.121678  0.886007
			-0.654041 -0.583261  0.481701
			-0.622550 -0.600171  0.502222
			-0.128855 -0.427461  0.894804
			-0.393976  0.253278 -0.883535
			-0.731226 -0.050825 -0.680239
			-0.880805 -0.276210 -0.384565
			-0.131286 -0.412962  0.901236
			-0.831372 -0.504436  0.233162
			 0.818557  0.070098  0.570132
			 0.690414  0.149072 -0.707889
			-0.442804  0.114343 -0.889298
			-0.253449 -0.068838  0.964896
			-0.905844  0.134920  0.401551
			 0.610537  0.711015 -0.348857
			 0.824611  0.499314  0.265898
			 0.587751 -0.019657  0.808803
			-0.115565  0.465501 -0.877470
			 0.082463  0.599751 -0.795926
			-0.138278 -0.509016  0.849577
			-0.669926 -0.629164  0.394147
			-0.684238 -0.609838  0.399895
			-0.204925 -0.442579  0.873000
			-0.482771  0.210901 -0.849972
			-0.780129 -0.138104 -0.610186
			-0.885290 -0.327626 -0.330034
			-0.151252 -0.470432  0.869377
			-0.762816 -0.540977  0.354196
			 0.278270 -0.268767  0.922133
			 0.991291  0.084548  0.100963
			 0.560156  0.244562 -0.791464
			-0.478060  0.212524 -0.852228
			-0.434988 -0.278350  0.856333
			-0.986214  0.165288 -0.007814
			 0.451713  0.726478 -0.517866
			 0.817658  0.544898  0.185800
			-0.087658 -0.519475  0.849978
			 0.637580  0.006474  0.770357
			-0.195188  0.436395 -0.878328
			 0.011188  0.586491 -0.809878
			-0.649836 -0.624257  0.433609
			-0.762566 -0.570132  0.305684
			-0.173100 -0.515800  0.839039
			-0.604033  0.157231 -0.781295
			-0.855464 -0.217660 -0.469900
			-0.190827 -0.523191  0.830576
			-0.823191 -0.548618  0.146203
			-0.049578 -0.412229  0.909731
			 0.912706  0.069677  0.402632
			 0.467062  0.357015 -0.808946
			-0.443790  0.161222 -0.881509
			-0.747993 -0.442230  0.494913
			 0.098471  0.669286 -0.736451
			 0.481675  0.802836 -0.351345
			 0.725854  0.650080  0.224795
			-0.091168 -0.486180  0.869090
			-0.686547 -0.626285  0.369351
			 0.786939  0.358279  0.502357
			 0.559923 -0.055280  0.826699
			-0.307801  0.423506 -0.851998
			-0.189448  0.524483 -0.830076
			-0.783921 -0.599821  0.160257
			-0.368943 -0.595127  0.713936
			-0.632261  0.181334 -0.753236
			-0.842679 -0.162443 -0.513327
			-0.747016 -0.553929  0.367600
			 0.036744 -0.408423  0.912053
			-0.144053 -0.617746  0.773071
			 0.897689  0.440484  0.011305
			 0.518470  0.356955 -0.777028
			-0.018774  0.245646 -0.969178
			-0.732078 -0.536558 -0.419724
			 0.285746  0.813844 -0.505971
			 0.659745  0.740819  0.126194
			-0.088188 -0.555662  0.826718
			-0.669999 -0.644136  0.369040
			-0.740432 -0.644914  0.189331
			 0.773985  0.465324  0.429443
			 0.574282  0.032796  0.818000
			-0.519766  0.240442 -0.819775
			-0.165904  0.583294 -0.795138
			-0.408630 -0.694674  0.591987
			-0.799298 -0.103924 -0.591881
			-0.798715 -0.585093  0.140432
			-0.257994 -0.551992  0.792934
			-0.509425 -0.528335  0.679226
			 0.546288  0.110096  0.830330
			-0.566218 -0.784608 -0.252562
			-0.136994 -0.485920  0.863200
			 0.756680  0.343576 -0.556229
			 0.380729  0.358169 -0.852503
			 0.068186  0.288002 -0.955199
			 0.305775  0.831352 -0.464064
			 0.723473  0.688858  0.045408
			 0.046255 -0.473493  0.879582
			-0.492398 -0.741311  0.456073
			-0.581775 -0.743358  0.330085
			 0.818211  0.467029  0.335284
			 0.667131  0.022840  0.744591
			-0.528419  0.314077 -0.788751
			-0.180714  0.617769 -0.765313
			-0.369646 -0.740589  0.561151
			-0.810857 -0.120724 -0.572658
			-0.816887 -0.574346 -0.053123
			-0.016696 -0.757045  0.653150
			 0.038024 -0.944075  0.327530
			 0.624601 -0.638387  0.449817
			-0.131267 -0.931925  0.338059
			-0.142217 -0.961710 -0.234280
			 0.604750 -0.258181 -0.753405
			 0.702632 -0.580337 -0.411725
			 0.500757 -0.473307 -0.724723
			 0.391022  0.764847 -0.511967
			 0.811488  0.584364  0.002152
			 0.051733 -0.503366  0.862523
			-0.478656 -0.704616  0.523837
			-0.471081 -0.786251  0.399864
			 0.864752  0.395886  0.308995
			 0.668922  0.066010  0.740395
			-0.533368  0.333601 -0.777322
			-0.186416  0.601007 -0.777200
			-0.490147 -0.731916  0.473345
			-0.827425 -0.561325 -0.016799
			-0.791829 -0.066557 -0.607105
			 0.369573  0.737331 -0.565473
			 0.777593  0.628150  0.027848
			 0.169331 -0.377653  0.910332
			-0.318736 -0.700870  0.638113
			-0.541542 -0.764877  0.348849
			 0.794912  0.459050  0.396722
			 0.583570  0.017648  0.811871
			-0.522973  0.381707 -0.762102
			-0.302253  0.517357 -0.800615
			-0.908017 -0.400602 -0.122569
			-0.782061  0.021421 -0.622833
			 0.262274  0.726563 -0.635073
			 0.768211  0.640105  0.010841
			 0.063775 -0.551058  0.832027
			-0.411598 -0.730240  0.545286
			-0.729166 -0.631339  0.264060
			-0.919467 -0.339074 -0.199018
			 0.836699  0.393292  0.381124
			 0.690074 -0.061157  0.721150
			-0.684721  0.233187 -0.690493
			-0.415449  0.440090 -0.796067
			 0.178088  0.770001 -0.612685
			 0.753671  0.655968 -0.041056
			-0.345689 -0.688925  0.637088
			 0.240058 -0.506867  0.827924
			-0.801571 -0.550585  0.233109
			-0.962754 -0.264766 -0.054808
			-0.763161  0.203746 -0.613248
			 0.854582  0.405288  0.324702
			 0.774662 -0.049770  0.630414
			-0.499784  0.470568 -0.727174
			 0.063157  0.820658 -0.567918
			 0.665218  0.745848 -0.034597
			-0.742430 -0.638227  0.203626
			-0.270573 -0.751456  0.601750
			 0.259615 -0.590684  0.763998
			-0.866221  0.067989 -0.495013
			-0.927354 -0.325433 -0.184683
			 0.879791  0.394832  0.264717
			 0.677863 -0.208519  0.704997
			-0.542999  0.453863 -0.706513
			 0.008057  0.840842 -0.541221
			 0.623960  0.780867 -0.030344
			-0.859341 -0.065812 -0.507150
			-0.807024 -0.567507 -0.163244
			-0.525881 -0.790862  0.313029
			-0.080262 -0.738227  0.669760
			 0.767796  0.632099  0.104596
			 0.839190  0.325846  0.435412
			 0.432170 -0.353015  0.829825
			-0.482514  0.461158 -0.744657
			 0.139803  0.918449 -0.370009
			-0.827990 -0.016298 -0.560506
			-0.793078 -0.599430 -0.108220
			-0.222059 -0.866490  0.447084
			 0.644674  0.762806 -0.050213
			 0.838509  0.398391  0.371735
			 0.712228 -0.012795  0.701832
			 0.282975 -0.592098  0.754549
			-0.510928  0.523590 -0.681767
			-0.147883  0.782602 -0.604703
			-0.818738  0.130055 -0.559245
			-0.609714 -0.784214 -0.115141
			-0.025918 -0.838168  0.544796
			 0.520641  0.798014 -0.303490
			 0.815243  0.561527  0.141656
			 0.804304  0.062207  0.590953
			 0.050409 -0.622586  0.780926
			 0.428325 -0.353872  0.831452
			 0.386870  0.793307 -0.470103
			-0.144626  0.591634 -0.793129
			-0.634185  0.098037 -0.766941
			-0.677966 -0.726854 -0.109753
			-0.702996 -0.442060 -0.557117
			-0.214887 -0.800765  0.559105
			 0.796271  0.602135  0.058191
			 0.822256  0.261102  0.505688
			 0.107744 -0.438580  0.892210
			 0.029276 -0.575603  0.817205
			 0.483787 -0.128444  0.865709
			 0.181492  0.715678 -0.674438
			 0.660208  0.725999 -0.192484
			-0.585185  0.032445 -0.810250
			-0.229921  0.481320 -0.845853
			-0.545121 -0.790887  0.278102
			-0.769405 -0.414365 -0.486126
			 0.779259  0.418318  0.466653
			 0.474236 -0.058474  0.878454
			 0.185361 -0.449816  0.873674
			 0.009849 -0.630993  0.775726
			 0.191420  0.731895 -0.653979
			 0.665515  0.740937 -0.090008
			-0.630667  0.025170 -0.775645
			-0.154036  0.447162 -0.881090
			-0.566781 -0.793210  0.222658
			-0.805609 -0.407827 -0.429735
			 0.710294  0.512326  0.482706
			 0.555990  0.077877  0.827533
			 0.192917 -0.316415  0.928798
			 0.076501 -0.546656  0.833855
			 0.481716  0.659956 -0.576548
			 0.768160  0.609324  0.196607
			-0.556360 -0.027152 -0.830498
			 0.035891  0.285565 -0.957687
			-0.738822 -0.496052 -0.456152
			-0.525045 -0.803364  0.280953
			 0.502372  0.112951  0.857242
			 0.262113 -0.172203  0.949549
			 0.291646 -0.455760  0.840967
			 0.808757  0.579372 -0.101193
			 0.508680  0.492154 -0.706420
			 0.707653  0.247925  0.661635
			-0.488775 -0.163431 -0.856965
			-0.002845  0.255018 -0.966932
			-0.816603 -0.425209 -0.390330
			-0.467788 -0.782309  0.411298
			 0.456219 -0.161391  0.875110
			 0.387448 -0.244812  0.888792
			 0.954053  0.297631  0.034620
			 0.563694  0.435663 -0.701746
			 0.579432  0.044817  0.813787
			-0.626460 -0.108756 -0.771829
			-0.084209  0.175867 -0.980806
			-0.839869 -0.456514 -0.293623
			-0.378599 -0.549602  0.744715
			 0.395290  0.005745  0.918539
			 0.140784 -0.035599  0.989400
			 0.664317  0.246647 -0.705584
			 0.989244  0.120750 -0.082562
			 0.726777  0.063020  0.683976
			 0.062240  0.233521 -0.970358
			 0.377152  0.031693  0.925609
			-0.665970 -0.205613 -0.717082
			-0.516959  0.127396 -0.846477
			-0.814968 -0.466035  0.344439
			-0.856717 -0.396663 -0.329687
			 0.246456 -0.051820  0.967768
			-0.658728 -0.184750  0.729345
			-0.050390  0.303213 -0.951589
			 0.615572  0.204647 -0.761046
			 0.982260  0.124928 -0.139850
			 0.736426 -0.001718  0.676516
			 0.420933  0.004633  0.907080
			-0.480436  0.297741 -0.824944
			 0.389227 -0.052681  0.919634
			-0.890918 -0.069411 -0.448828
			-0.876616  0.215065 -0.430454
			-0.973443 -0.194776 -0.120293
			-0.417304 -0.050595  0.907357
			-0.991688  0.113704 -0.060223
			-0.756902  0.334783 -0.561267
			-0.276744  0.361333 -0.890422
			 0.178723  0.402271 -0.897907
			 0.820851  0.245682 -0.515601
			 0.885200  0.086830  0.457036
			 0.428712 -0.021166  0.903193
			 0.508138 -0.050870  0.859772
			-0.493971  0.169705  0.852756
			-0.954714  0.260313 -0.144076
			-0.801564  0.588284 -0.106850
			-0.564199  0.712458 -0.417232
			-0.074272  0.906037 -0.416630
			 0.747289  0.552344 -0.369424
			 0.202327  0.864638  0.459853
			-0.084002  0.750188  0.655867
			-0.260396  0.460557  0.848576
		</DataArray>
	</PointData>
	<Points>
		<DataArray type="Float32" NumberOfComponents="3" format="ascii">
			 0.079313 -0.368262 -0.164536
			 0.080055 -0.369997 -0.164744
			 0.078019 -0.371174 -0.162641
			 0.079684 -0.367720 -0.164817
			 0.077407 -0.367937 -0.163484
			 0.077321 -0.364444 -0.163872
			 0.080874 -0.370422 -0.165378
			 0.076073 -0.370134 -0.160464
			 0.075150 -0.370696 -0.158672
			 0.073075 -0.362655 -0.160831
			 0.077145 -0.371784 -0.161599
			 0.076218 -0.373292 -0.160342
			 0.080392 -0.365360 -0.165519
			 0.082534 -0.368708 -0.165974
			 0.077218 -0.360267 -0.164337
			 0.082043 -0.373082 -0.166293
			 0.087988 -0.370163 -0.167610
			 0.087502 -0.367203 -0.166602
			 0.073879 -0.371808 -0.155049
			 0.074082 -0.375490 -0.151986
			 0.074006 -0.373623 -0.153756
			 0.073276 -0.351040 -0.163820
			 0.067891 -0.367346 -0.145950
			 0.062235 -0.358658 -0.146748
			 0.067584 -0.354208 -0.159698
			 0.077256 -0.376077 -0.160809
			 0.075460 -0.377927 -0.153777
			 0.082863 -0.357548 -0.165817
			 0.087113 -0.366583 -0.166676
			 0.084447 -0.375101 -0.167710
			 0.078835 -0.378431 -0.162527
			 0.088940 -0.369922 -0.166268
			 0.089836 -0.372634 -0.167680