<?xml version="1.0"?>
<VTKFile type="PolyData" version="0.1" byte_order="LittleEndian" compressor="vtkZLibDataCompressor">
	<PolyData>
		<Piece NumberOfPoints="759" NumberOfVerts="0" NumberOfLines="0" NumberOfStrips="0" NumberOfPolys="1510">
		<PointData Normals="Normals">
		<DataArray type="Float32" Name="Normals" NumberOfComponents="3" format="ascii">
			 0.665178  0.108052  0.738825
			 0.560799  0.151878  0.813902
			 0.868390  0.186056  0.459654
			 0.814771  0.183797  0.549878
			 0.332773  0.004722  0.942995
			 0.117915  0.032187  0.992502
			 0.886343  0.252131  0.388364
			 0.822328  0.312836  0.475299
			 0.462791  0.168724  0.870263
			 0.297128  0.060053  0.952947
			-0.096129 -0.028396  0.994964
			 0.508080  0.022292  0.861021
			 0.832655  0.169231  0.527301
			 0.990281  0.129767  0.050043
			 0.966021  0.241234  0.092783
			-0.035896 -0.054950  0.997844
			-0.337165 -0.105826  0.935479
			 0.946320  0.321485  0.033543
			 0.590135  0.375845  0.714480
			 0.926890  0.375275  0.006642
			 0.804395  0.440053  0.399126
			 0.085741 -0.018017  0.996155
			-0.789074 -0.363513  0.495197
			-0.809084 -0.310527  0.498954
			-0.084150 -0.123196  0.988808
			 0.911776  0.055141  0.406970
			 0.453843  0.033593  0.890448
			 0.886216  0.312157 -0.342315
			 0.995673  0.073896 -0.056348
			 0.833668  0.214631 -0.508853
			-0.648428 -0.439857  0.621343
			 0.917149  0.254733 -0.306510
			 0.799351  0.405127 -0.443745
			 0.586525  0.329056  0.740075
			 0.829768  0.316413 -0.459748
			 0.880488  0.473721 -0.018166
			 0.817302  0.451363  0.358176
			-0.544271 -0.569052  0.616400
			 0.223714  0.003273  0.974649
			-0.216419 -0.285723  0.933555
			-0.849631 -0.406520 -0.335960
			-0.798205 -0.452123 -0.398062
			-0.826017 -0.280342  0.488982
			-0.882806 -0.322441 -0.341591
			-0.107652 -0.120434  0.986867
			 0.891130  0.087356  0.445259
			 0.999533  0.030558 -0.000678
			 0.414612  0.033478  0.909382
			 0.397176  0.220250 -0.890922
			 0.936482  0.065381 -0.344566
			 0.910675  0.118765 -0.395684
			 0.152129  0.051127 -0.987037
			 0.390473  0.085195 -0.916664
			-0.795777 -0.544580 -0.264899
			 0.466280  0.115694 -0.877040
			 0.673157  0.482974  0.559996
			 0.466592  0.225093  0.855351
			 0.288735  0.073965 -0.954548
			 0.739733  0.445377 -0.504415
			 0.863745  0.495616 -0.091153
			 0.816278  0.563409  0.127520
			-0.222372 -0.304112  0.926319
			-0.257034 -0.474377  0.841962
			-0.557876 -0.792467  0.246516
			-0.609619 -0.698881 -0.374072
			 0.028046 -0.152753  0.987866
			-0.882523 -0.349052 -0.315145
			-0.894292 -0.341697 -0.288937
			-0.623251 -0.327920 -0.709948
			-0.703497 -0.285458 -0.650850
			-0.848857 -0.305220 -0.431605
			-0.779362 -0.208604  0.590830
			-0.909462 -0.220735 -0.352356
			-0.927935 -0.220011 -0.300885
			-0.180371 -0.048219  0.982416
			 0.917346  0.082547  0.389439
			 0.998155  0.058818 -0.015076
			 0.937632 -0.001415 -0.347626
			 0.465268  0.071640  0.882266
			-0.188733  0.046328 -0.980935
			-0.233886 -0.032246 -0.971729
			 0.410267 -0.005005 -0.911952
			-0.403183 -0.104185 -0.909169
			-0.317650 -0.058051 -0.946430
			-0.088643 -0.194599 -0.976869
			 0.684756  0.590704  0.426823
			 0.514032  0.375579  0.771175
			-0.143488 -0.135092 -0.980388
			 0.261805  0.217598 -0.940271
			 0.697304  0.508655 -0.505011
			 0.791697  0.533476 -0.297689
			 0.788625  0.614855  0.004818
			-0.081677 -0.321101  0.943516
			-0.226945 -0.526529  0.819307
			-0.511674 -0.710857 -0.482568
			-0.499876 -0.748368  0.435969
			-0.651253 -0.743732 -0.150772
			-0.391223 -0.420355 -0.818686
			-0.226190 -0.423136 -0.877379
			 0.185162 -0.088504  0.978715
			-0.802288 -0.242530 -0.545448
			-0.900186 -0.299963 -0.315733
			-0.835325 -0.209080 -0.508446
			-0.652035 -0.352275 -0.671381
			-0.627761 -0.191039 -0.754599
			-0.695922 -0.140115 -0.704316
			-0.858280 -0.211615 -0.467519
			-0.709588 -0.296669 -0.639118
			-0.631970 -0.170226  0.756067
			-0.966880 -0.254144  0.023554
			-0.840846 -0.187942 -0.507598
			-0.931190 -0.169016 -0.322985
			-0.876111 -0.153774 -0.456929
			-0.165931 -0.022147  0.985889
			 0.938462  0.087051  0.334232
			 0.993690  0.111641 -0.010784
			 0.924895 -0.049599 -0.376974
			 0.434588 -0.109003 -0.894009
			 0.607236  0.090672  0.789331
			-0.324288 -0.085380 -0.942097
			 0.724219  0.622113  0.297459
			 0.554666  0.571186  0.605055
			 0.409428  0.429524  0.804908
			-0.775905 -0.354111 -0.522089
			-0.244518 -0.068958 -0.967190
			 0.172575  0.267510 -0.947975
			 0.473603  0.487070 -0.733800
			 0.705012  0.545548 -0.453140
			 0.781192  0.618691 -0.083429
			-0.250945 -0.507634  0.824218
			-0.138168 -0.165799 -0.976433
			-0.431376 -0.479189 -0.764390
			-0.655511 -0.710560  0.255756
			-0.545173 -0.539651 -0.641532
			-0.698563 -0.685206 -0.206162
			-0.271269 -0.236553 -0.932982
			-0.136567 -0.079563 -0.987431
			 0.041443 -0.094452  0.994666
			-0.927707 -0.348847 -0.132911
			-0.822175 -0.244481 -0.514060
			-0.887236 -0.428857 -0.169984
			-0.668640 -0.434332 -0.603553
			-0.947048 -0.297476  0.120861
			-0.691209 -0.221682  0.687814
			-0.848164 -0.236042 -0.474238
			-0.897168 -0.238134 -0.371997
			-0.870269 -0.236085 -0.432315
			-0.292923 -0.122942 -0.948199
			-0.530562 -0.167333  0.830966
			-0.024056 -0.015375  0.999592
			 0.976312  0.089020  0.197207
			 0.986574  0.014953 -0.162629
			 0.391754 -0.168301 -0.904546
			 0.749610 -0.185674 -0.635304
			 0.644858 -0.021490  0.764001
			 0.686311  0.610481  0.395335
			 0.480199  0.556531  0.677999
			 0.123855  0.195805  0.972790
			-0.771366 -0.350548 -0.531142
			-0.321784 -0.030089 -0.946335
			-0.100684  0.189161 -0.976771
			 0.252434  0.380043 -0.889856
			 0.548809  0.512147 -0.660692
			 0.773901  0.620674 -0.125864
			-0.499098 -0.472556  0.726355
			-0.108810  0.066170 -0.991858
			-0.066236 -0.050099 -0.996545
			-0.783476 -0.604302  0.144862
			-0.290201 -0.247161 -0.924497
			-0.733422 -0.597491 -0.324186
			-0.501826 -0.328126 -0.800315
			-0.449456 -0.183185 -0.874319
			-0.843019 -0.506164 -0.181979
			-0.770290 -0.464585 -0.436822
			-0.840735 -0.301938 -0.449442
			-0.912213 -0.308329  0.269817
			-0.850354 -0.280867 -0.444986
			-0.886921 -0.333353 -0.319759
			-0.401646 -0.221395 -0.888631
			-0.703711 -0.186371  0.685607
			-0.100662 -0.042379  0.994018
			 0.997278  0.053635 -0.050593
			 0.964935  0.066070  0.254039
			 0.864884 -0.156374 -0.476994
			 0.053170 -0.297973 -0.953092
			 0.142100 -0.331255 -0.932779
			 0.641054 -0.002061  0.767493
			 0.743058  0.649959  0.159431
			 0.548429  0.568326  0.613377
			 0.347412  0.527338  0.775384
			-0.051132  0.173416  0.983520
			-0.548740 -0.370854  0.749234
			-0.784024 -0.352475 -0.510948
			-0.574187 -0.160063 -0.802925
			-0.221691  0.089690 -0.970984
			 0.029638  0.247132 -0.968529
			 0.567765  0.512908 -0.643870
			-0.069036  0.078586 -0.994514
			-0.554619 -0.193643 -0.809259
			-0.849139 -0.502552  0.162493
			-0.810595 -0.499040 -0.306422
			-0.272687 -0.194896 -0.942156
			 0.038099  0.044693 -0.998274
			-0.724863 -0.381061 -0.573905
			-0.684328 -0.309200 -0.660372
			-0.801966 -0.425034 -0.419758
			-0.729538 -0.319710 -0.604615
			-0.947733 -0.317971 -0.026412
			-0.619506 -0.400153 -0.675345
			-0.883896 -0.344408  0.316404
			-0.468548 -0.154123  0.869890
			 0.083691 -0.027556  0.996111
			 0.999707  0.020868  0.012297
			 0.918815 -0.162435 -0.359714
			 0.911040  0.014645  0.412057
			 0.276334 -0.391911 -0.877522
			-0.671972 -0.474661 -0.568463
			 0.342990 -0.078008  0.936095
			 0.742380  0.635597 -0.211869
			 0.579790  0.631428  0.514919
			 0.671273  0.494272 -0.552348
			 0.390458  0.558815  0.731621
			 0.178362  0.432433  0.883849
			-0.606692 -0.287243  0.741227
			-0.192948  0.087915  0.977263
			-0.568103 -0.164156 -0.806419
			 0.112509  0.151498 -0.982034
			-0.390326 -0.170727 -0.904709
			-0.731238 -0.308905 -0.608168
			-0.912912 -0.385513  0.134057
			-0.836803 -0.446536 -0.316807
			-0.188166 -0.156559 -0.969579
			 0.092305  0.013250 -0.995643
			-0.273685 -0.227326 -0.934569
			-0.677992 -0.405396 -0.613173
			-0.818083 -0.368573 -0.441468
			-0.823869 -0.305678  0.477286
			-0.836479 -0.377301 -0.397425
			-0.399161 -0.082873  0.913128
			 0.997523  0.005051  0.070155
			 0.916785 -0.214684 -0.336775
			 0.326673 -0.507500 -0.797326
			 0.806545  0.110641  0.580727
			-0.627712 -0.435897 -0.644958
			-0.831803 -0.393157 -0.391830
			 0.204602  0.062396  0.976854
			 0.691671  0.701088  0.173395
			 0.400668  0.285455 -0.870621
			 0.455617  0.364937 -0.811932
			 0.486582  0.582346  0.651238
			 0.370024  0.407455  0.834903
			-0.185703  0.154386  0.970402
			-0.742230 -0.163072  0.650002
			-0.523960 -0.212760 -0.824742
			-0.392149 -0.223212 -0.892410
			-0.596741 -0.372003 -0.710996
			-0.925256 -0.343838  0.160241
			-0.783161 -0.445037 -0.434283
			 0.167759  0.040151 -0.985010
			-0.059448 -0.031622 -0.997730
			-0.211555 -0.192846 -0.958152
			-0.527427 -0.395934 -0.751703
			-0.935266 -0.283745  0.211583
			-0.573133 -0.097760  0.813611
			-0.813261 -0.240713 -0.529778
			-0.810209 -0.252922 -0.528765
			 0.962048  0.072392  0.263104
			 0.968038 -0.118337 -0.221131
			 0.491711 -0.579710 -0.649736
			-0.626948 -0.588317 -0.510705
			 0.460842  0.296526  0.836479
			-0.223581 -0.034903  0.974060
			 0.553901  0.562905  0.613458
			 0.561722  0.495334 -0.662656
			 0.688080  0.650452  0.321649
			-0.292889 -0.180508 -0.938953
			 0.537982  0.424133  0.728482
			-0.081653  0.101881  0.991440
			-0.797459 -0.133378  0.588447
			-0.676294 -0.443376 -0.588256
			-0.909780 -0.394066  0.130430
			-0.601774 -0.234757 -0.763386
			 0.045132  0.001820 -0.998979
			-0.354090 -0.312905 -0.881312
			-0.617528 -0.437767 -0.653467
			-0.947897 -0.305038 -0.091883
			-0.809316 -0.265976  0.523702
			-0.777211 -0.190251 -0.599790
			-0.780581 -0.119693 -0.613487
			-0.498540 -0.556044 -0.665037
			 0.827549  0.222304  0.515504
			 0.995784 -0.089222 -0.021289
			 0.690152 -0.118663 -0.713869
			 0.988681  0.027637 -0.147466
			-0.091762  0.297769  0.950218
			-0.732461 -0.234129  0.639285
			 0.649867  0.475581  0.592870
			-0.223929 -0.190514 -0.955804
			 0.677853  0.537502 -0.501604
			 0.707545  0.603127  0.368264
			 0.433549  0.323060  0.841230
			-0.733924 -0.256732  0.628843
			-0.329614 -0.002927  0.944111
			-0.887820 -0.453281  0.079454
			-0.372304 -0.122794 -0.919952
			-0.188831 -0.185158 -0.964396
			-0.453271 -0.368938 -0.811437
			-0.626902 -0.457442 -0.630667
			-0.846107 -0.170457 -0.505022
			-0.947848 -0.316908  0.033965
			-0.394313 -0.295312 -0.870235
			 0.999546 -0.026613  0.014156
			 0.871174  0.264052  0.413923
			 0.976270  0.131061 -0.172395
			 0.301118 -0.049718 -0.952290
			-0.679300  0.002308  0.733857
			 0.104100  0.246729  0.963477
			-0.952955 -0.275954  0.125404
			 0.707411  0.518477  0.480366
			 0.566553  0.443773  0.694323
			-0.098027 -0.096964 -0.990449
			 0.593331  0.518277 -0.615912
			 0.728764  0.619260 -0.292268
			-0.028196  0.137718  0.990070
			-0.670115 -0.317620  0.670868
			-0.891680 -0.413596 -0.183970
			-0.292721 -0.030760 -0.955703
			-0.242709 -0.074926 -0.967201
			-0.519139 -0.316928 -0.793758
			-0.679663 -0.420122 -0.601294
			-0.293361 -0.128188 -0.947369
			-0.507042 -0.216826 -0.834203
			-0.839104 -0.253576 -0.481251
			 0.987755  0.026618 -0.153728
			 0.990559 -0.010792  0.136661
			 0.847944  0.123484  0.515503
			 0.780637  0.139642 -0.609185
			-0.384016 -0.150726 -0.910941
			-0.790462 -0.120268  0.600587
			-0.090489 -0.038001  0.995172
			-0.890509 -0.196224 -0.410475
			-0.976454 -0.178127  0.121686
			 0.782305  0.517951  0.346014
			 0.660427  0.439074  0.609139
			 0.334593  0.313990  0.888514
			 0.535413  0.487191 -0.689912
			-0.300719 -0.119532 -0.946193
			-0.213866 -0.011325  0.976797
			-0.518395 -0.266240  0.812640
			-0.830450 -0.429368  0.354960
			-0.743448 -0.248345 -0.620975
			-0.205290 -0.053839 -0.977219
			-0.472123 -0.273321 -0.838090
			-0.644998 -0.398338 -0.652154
			 0.901597  0.037264  0.430970
			 0.991917  0.026268 -0.124138
			 0.984787 -0.078293  0.155127
			 0.746039 -0.068895 -0.662329
			-0.679321 -0.159613 -0.716273
			-0.092897 -0.146515  0.984837
			-0.794552 -0.187538  0.577509
			-0.980293 -0.189850 -0.054615
			 0.575298  0.539051 -0.615188
			 0.769733  0.440758  0.461783
			 0.575565  0.369634  0.729449
			 0.161100  0.130219  0.978310
			-0.459335 -0.158440 -0.874019
			-0.712326 -0.313537  0.627922
			-0.606601 -0.229083  0.761286
			-0.934927 -0.347688  0.070882
			-0.567156 -0.163164 -0.807286
			-0.357156 -0.175586 -0.917393
			-0.636149 -0.346369 -0.689451
			 0.924309 -0.012061  0.381455
			 0.990043  0.123280 -0.067948
			 0.962179  0.032300  0.270495
			 0.623278  0.290583 -0.726007
			-0.583115  0.042830 -0.811260
			-0.796666 -0.153662 -0.584561
			-0.005449 -0.263670  0.964598
			-0.780509 -0.255341  0.570620
			-0.981428 -0.182921 -0.057784
			 0.415868  0.500182 -0.759521
			-0.466882 -0.114074 -0.876931
			 0.637779  0.317283  0.701833
			 0.781661  0.400248  0.478339
			 0.484064  0.312251  0.817424
			-0.004282 -0.013867  0.999895
			-0.739349 -0.362400  0.567476
			-0.929344 -0.347260 -0.125420
			-0.448548 -0.077724 -0.890373
			-0.566212 -0.227170 -0.792337
			 0.950202 -0.097314  0.296051
			 0.969766  0.240884 -0.039107
			 0.949292  0.259171  0.177974
			 0.554605  0.206879 -0.805987
			-0.668623  0.000598 -0.743601
			-0.905025 -0.066593 -0.420114
			 0.180001 -0.448304  0.875570
			-0.553356 -0.366747  0.747859
			-0.970641 -0.113927  0.211842
			-0.483019 -0.033620 -0.874964
			-0.420048  0.169418 -0.891548
			 0.599663  0.608451 -0.519799
			 0.073350  0.352643 -0.932879
			 0.723001  0.430252  0.540511
			 0.510603  0.538372  0.670403
			 0.467167  0.182751  0.865077
			 0.484240  0.416083  0.769667
			-0.525355 -0.363484  0.769338
			 0.009828 -0.048223  0.998788
			-0.645743 -0.460312  0.609203
			-0.861086 -0.268632 -0.431703
			-0.812782 -0.484664  0.323243
			-0.357328  0.067571 -0.931532
			-0.538538 -0.103892 -0.836172
			-0.711997 -0.243583 -0.658580
			 0.927132 -0.270490  0.259349
			 0.987713  0.103352  0.117222
			 0.439631  0.356941 -0.824207
			-0.815423  0.075588 -0.573909
			-0.996006 -0.077179  0.044900
			 0.163626 -0.559919  0.812230
			-0.650078 -0.281497  0.705803
			-0.736641  0.212513 -0.642027
			-0.773896 -0.011010 -0.633217
			-0.050419  0.230576 -0.971747
			-0.717699 -0.252849 -0.648827
			-0.562648 -0.183507 -0.806072
			 0.046600  0.334229 -0.941339
			 0.410345  0.505687 -0.758879
			 0.784840  0.573690  0.234321
			 0.478935  0.565189  0.671701
			 0.727993  0.347823  0.590801
			 0.086544 -0.029108  0.995823
			 0.621230  0.208520  0.755376
			 0.143349 -0.096207  0.984985
			 0.447280  0.003427  0.894388
			-0.412206 -0.290813  0.863431
			-0.769632 -0.429868  0.472101
			-0.789007 -0.484297  0.378054
			-0.918561 -0.151814 -0.364964
			-0.566876  0.347920 -0.746729
			-0.899615 -0.434074  0.047684
			-0.446700  0.205867 -0.870677
			-0.375745  0.082820 -0.923015
			-0.452775 -0.148063 -0.879245
			-0.724135 -0.217014 -0.654625
			-0.678192 -0.209352 -0.704434
			 0.534447 -0.399207  0.744983
			 0.976540 -0.156811  0.147578
			 0.423750  0.059406 -0.903829
			-0.902257  0.032897 -0.429943
			-0.633231 -0.338297  0.696113
			-0.989682 -0.095999  0.106369
			-0.724135 -0.217014 -0.654625
			-0.688934 -0.258258 -0.677254
			-0.374632  0.004888 -0.927161
			 0.551528  0.469117 -0.689744
			 0.874366  0.449552  0.182720
			 0.765283  0.261784  0.588057
			 0.611122  0.149580  0.777274
			 0.048254 -0.158687  0.986149
			-0.675106 -0.377585  0.633768
			-0.680713 -0.344295  0.646599
			-0.903464 -0.196885 -0.380774
			-0.789343 -0.243407 -0.563641
			 0.000000  0.000000  0.000000
			-0.438903 -0.044131 -0.897450
			-0.857497 -0.186585 -0.479463
			-0.495547 -0.181068 -0.849498
			-0.629025 -0.208451 -0.748916
			 0.974116 -0.005414  0.225982
			 0.297488 -0.429613  0.852604
			 0.383076  0.134054 -0.913938
			-0.950057 -0.134277 -0.281710
			-0.734120 -0.407955  0.542808
			-0.484193 -0.124072 -0.866120
			-0.687155 -0.265765 -0.676156
			-0.717689  0.154928 -0.678911
			-0.529768  0.178876 -0.829065
			-0.571780 -0.107249 -0.813367
			 0.309896  0.368668 -0.876383
			 0.895023  0.419059  0.152719
			 0.684891  0.169619  0.708628
			 0.785230  0.272781  0.555882
			 0.622996  0.098194  0.776038
			-0.675783 -0.215624  0.704857
			 0.093316 -0.062203  0.993692
			-0.890033 -0.185819 -0.416309
			-0.967598 -0.183023 -0.173946
			-0.543301  0.012731 -0.839441
			-0.640834  0.045583 -0.766325
			-0.500994  0.142459 -0.853645
			-0.662714 -0.038167 -0.747899
			 0.981437  0.058472  0.182651
			 0.385831 -0.240222  0.890746
			 0.952301  0.185371  0.242407
			-0.849511  0.089084 -0.519996
			 0.839853  0.237141 -0.488273
			-0.906416 -0.262740 -0.330725
			-0.796361 -0.493959  0.349018
			-0.646548  0.159710 -0.745969
			-0.680342 -0.168585 -0.713241
			-0.727452 -0.237938 -0.643583
			 0.678725  0.546671 -0.490391
			-0.452689 -0.014056 -0.891558
			 0.867214  0.414299  0.276217
			 0.685154  0.143996  0.714023
			 0.752694  0.209923  0.624007
			 0.496452  0.112836  0.860700
			-0.382210 -0.071909  0.921274
			-0.857196 -0.158664  0.489939
			-0.656003 -0.121379 -0.744935
			-0.943147 -0.106509 -0.314848
			-0.687904 -0.143869 -0.711400
			 0.940001  0.313073  0.135586
			-0.267716 -0.564516  0.780800
			 0.655341  0.168217  0.736363
			-0.887343 -0.202427 -0.414302
			 0.228496  0.428099 -0.874369
			-0.836460  0.037146 -0.546768
			-0.767279 -0.638247  0.062634
			-0.304992  0.155206 -0.939623
			 0.866827  0.477403 -0.143866
			 0.845128  0.264652  0.464454
			 0.634449  0.137238  0.760684
			-0.061166 -0.003279  0.998122
			-0.948592 -0.145318  0.281170
			-0.798180 -0.072610 -0.598028
			-0.723089 -0.181453 -0.666497
			 0.960651  0.277446 -0.013154
			 0.682941  0.386879  0.619609
			-0.223342 -0.564576  0.794590
			-0.862822 -0.132823 -0.487747
			-0.844823 -0.533170  0.044769
			-0.185102  0.159281 -0.969725
			 0.339011  0.393271 -0.854640
			-0.713379 -0.202996 -0.670733
			 0.833164  0.488843 -0.258591
			 0.884129  0.369954  0.285393
			 0.721493  0.193166  0.664932
			 0.302441  0.040341  0.952314
			-0.627895 -0.209142  0.749672
			-0.888754 -0.196701 -0.414035
			-0.785651 -0.237776 -0.571152
			 0.872467  0.457609 -0.171449
			 0.190427  0.057859 -0.979995
			 0.421724  0.533824  0.732926
			-0.433227 -0.492379  0.754902
			-0.894144 -0.332288 -0.300151
			-0.809804 -0.566572  0.152359
			-0.001752  0.267215 -0.963635
			 0.817239  0.540991 -0.198618
			-0.773377 -0.260293 -0.578045
			 0.854682  0.366157  0.368032
			 0.599593  0.164983  0.783115
			 0.153217 -0.034172  0.987602
			-0.935505 -0.352221 -0.027759
			 0.920549  0.188520 -0.342126
			 0.835852  0.431659 -0.339149
			-0.949848 -0.151352 -0.273644
			-0.013890  0.217868 -0.975880
			-0.364461 -0.400899  0.840505
			 0.690553  0.268036  0.671784
			-0.812691 -0.534552  0.231920
			-0.303009  0.079954 -0.949628
			 0.794498  0.542984 -0.271920
			-0.821353 -0.303078 -0.483242
			 0.883217  0.403038  0.239768
			 0.646643  0.183408  0.740415
			-0.489028 -0.339647  0.803425
			 0.305086  0.251459 -0.918527
			 0.833128  0.328302 -0.445103
			-0.885902 -0.429161  0.176067
			-0.383531 -0.421724  0.821616
			 0.774307  0.293365  0.560701
			-0.131085  0.188846 -0.973218
			 0.809648  0.544792 -0.218337
			-0.841854 -0.352749 -0.408472
			 0.860784  0.416145  0.293044
			 0.624498  0.169071  0.762507
			-0.586727 -0.429610  0.686430
			 0.704337  0.561833 -0.433881
			-0.687167 -0.173373 -0.705509
			 0.858001  0.114291  0.500772
			 0.654236  0.611443 -0.445099
			-0.753607 -0.595203  0.278944
			-0.416368 -0.629847  0.655691
			-0.802701 -0.352404 -0.481126
			-0.071023  0.239671 -0.968253
			 0.750049  0.569509 -0.336282
			-0.870727 -0.365635 -0.328856
			 0.860656  0.444905  0.247651
			 0.688072  0.184956  0.701676
			-0.471132 -0.510010  0.719669
			 0.616177  0.682474 -0.393135
			 0.576237  0.646984 -0.499363
			 0.571268  0.484187 -0.662734
			-0.351494 -0.207176 -0.912979
			-0.815233 -0.533478  0.225383
			 0.858749  0.056268  0.509298
			-0.675174 -0.615626  0.406380
			-0.310168 -0.720357  0.620389
			-0.449853  0.096758 -0.887846
			 0.723759  0.597814 -0.344660
			-0.853432 -0.428228 -0.297109
			 0.857740  0.432814  0.277406
			 0.665968  0.115617  0.736966
			-0.124751 -0.381644  0.915852
			 0.553176  0.699708 -0.452112
			 0.697954 -0.232508  0.677348
			 0.461466  0.515972 -0.721680
			-0.356056 -0.405214 -0.842037
			-0.755701 -0.633923  0.164492
			-0.548169 -0.688014  0.475550
			-0.172777  0.167899 -0.970545
			 0.780540  0.555115 -0.287409
			-0.595984 -0.597978  0.535935
			-0.853464 -0.435808 -0.285782
			 0.786808  0.227105  0.573896
			 0.507860  0.759003 -0.407422
			 0.346603  0.578009 -0.738764
			-0.257844 -0.670646  0.695522
			 0.765476  0.144532  0.627023
			-0.064865 -0.562093  0.824526
			-0.399498 -0.291793 -0.869056
			-0.643080 -0.739677  0.198306
			-0.323129  0.018331 -0.946177
			 0.645437  0.499790 -0.577600
			 0.884471  0.461794  0.066761
			 0.758904  0.159824  0.631285
			-0.348388 -0.541495  0.765120
			-0.864031 -0.445195 -0.235058
			 0.856678  0.330480  0.396089
			 0.552296  0.446352 -0.704087
			-0.214617 -0.520670 -0.826343
			-0.456564 -0.573342  0.680315
			-0.613804 -0.134092 -0.777987
			 0.467594  0.534657 -0.703916
			 0.830304  0.522927 -0.192724
			 0.883644  0.368674  0.288537
			 0.703058  0.090732  0.705321
			-0.089434 -0.515981  0.851919
			-0.834293 -0.526773 -0.162680
			 0.525565  0.046064  0.849505
			 0.677908  0.312514 -0.665414
			-0.411232 -0.364973 -0.835274
			-0.735305 -0.452775  0.504303
			-0.436138 -0.038102 -0.899073
			 0.615713  0.574224 -0.539597
			 0.860381  0.508836  0.028807
			 0.834479  0.236318  0.497794
			-0.767501 -0.594946  0.238707
			-0.308570 -0.467225  0.828544
			 0.492991 -0.098693  0.864419
			-0.824225 -0.528025 -0.204556
			-0.462253 -0.519362  0.718739
			 0.550291 -0.055561  0.833122
			 0.579892  0.397563 -0.711104
			-0.443876 -0.377151 -0.812854
			-0.796665 -0.505460 -0.331414
			-0.438702 -0.069074 -0.895974
			 0.381466  0.420951 -0.822972
			 0.795170  0.546422 -0.262921
			 0.865117  0.473042  0.166748
			 0.780314  0.290902  0.553612
			-0.406568 -0.463070  0.787572
			-0.740327 -0.660260  0.126383
			 0.205269 -0.117834  0.971586
			 0.005033 -0.390322  0.920665
			-0.695952 -0.465727 -0.546580
			-0.343813 -0.492628  0.799444
			 0.870679  0.202650  0.448164
			 0.392208  0.392396 -0.831984
			-0.756133 -0.592854 -0.277106
			-0.679057 -0.213118 -0.702469
			-0.056961  0.283475 -0.957286
			 0.614378  0.507565 -0.604084
			 0.852810  0.498093 -0.156900
			 0.872399  0.408560  0.268326
			 0.435816  0.003895  0.900027
			-0.320272 -0.543343  0.776018
			-0.680230 -0.709940  0.182406
			-0.002767 -0.372051  0.928208
			-0.655690 -0.225724 -0.720499
			-0.505046 -0.494821  0.707164
			 0.836486  0.501968 -0.219817
			 0.348235  0.228153 -0.909219
			-0.784790 -0.591510 -0.184988
			-0.706116 -0.296576 -0.642995
			-0.202066  0.192823 -0.960202
			 0.544422  0.521800 -0.656757
			 0.873965  0.485666 -0.017740
			 0.713479  0.166479  0.680612
			-0.007365 -0.277467  0.960707
			-0.529228 -0.643773  0.552697
			 0.285317 -0.128109  0.949833
			 0.835959  0.186805  0.516020
			-0.181321 -0.231891 -0.955693
			-0.643835 -0.553687  0.528117
			-0.817358 -0.557536  0.145188
			-0.813287 -0.364578 -0.453483
			-0.506955 -0.086773 -0.857594
			 0.481664  0.408231 -0.775466
			 0.000315  0.200555 -0.979683
			 0.891615  0.413143 -0.185296
			 0.827549  0.171919  0.534421
			 0.113880 -0.057728  0.991816
			-0.292258 -0.316181  0.902560
			-0.055358 -0.834785  0.547786
			 0.125489 -0.649292  0.750115
			 0.445301 -0.358687 -0.820397
			-0.396412 -0.613127 -0.683325
			 0.758275 -0.647055  0.079619
			-0.553918 -0.187871  0.811098
			-0.875856 -0.429064 -0.220861
			-0.634047 -0.237149 -0.736033
			-0.219786  0.105342 -0.969844
			 0.815447  0.354957 -0.457223
			 0.305395  0.307946 -0.901057
			 0.988194  0.146887  0.043546
			 0.016541 -0.057541  0.998206
			 0.554377  0.022434  0.831963
			-0.234888  0.008462  0.971986
			-0.148072  0.140739  0.978911
			-0.760722 -0.321542  0.563837
			-0.871320 -0.409884 -0.269809
			-0.071884  0.178806 -0.981255
			-0.579615 -0.167425 -0.797505
			 0.850165  0.328467 -0.411495
			 0.457765  0.412726 -0.787470
			 0.721498  0.112232  0.683261
			 0.991783  0.124940 -0.027490
			-0.264353  0.126475  0.956097
			-0.171931  0.178163  0.968864
			-0.546885 -0.108231  0.830182
			-0.901910 -0.320593 -0.289445
			 0.402408  0.355846 -0.843470
			-0.154751  0.177829 -0.971817
			-0.653351 -0.094120 -0.751181
			 0.844791  0.217956 -0.488695
			 0.775416  0.256252  0.577118
			 0.009015  0.068822  0.997588
			 0.352538  0.151625  0.923432
			-0.872430 -0.101677  0.478046
			-0.918717 -0.004911 -0.394886
			 0.437413  0.291032 -0.850864
			-0.079426  0.349211 -0.933672
			-0.565086  0.223265 -0.794249
			 0.845619  0.136692 -0.515988
			-0.261711  0.551716  0.791907
			-0.310342  0.824665  0.472880
			-0.395180  0.361759  0.844372
			 0.605227  0.786960  0.119978
			-0.843323  0.537331 -0.009019
			-0.631382  0.636986 -0.442273
			-0.194103  0.773947 -0.602768
			 0.076391  0.888390 -0.452689
		</DataArray>
	</PointData>
	<Points>
		<DataArray type="Float32" NumberOfComponents="3" format="ascii">
			 0.065636 -0.353270 -0.102705
			 0.064649 -0.360633 -0.100901
			 0.070897 -0.356536 -0.109342
			 0.066420 -0.352718 -0.103985
			 0.061856 -0.351219 -0.100376
			 0.060464 -0.356166 -0.100247
			 0.068515 -0.351219 -0.107780
			 0.065587 -0.341685 -0.106187
			 0.061004 -0.344616 -0.100527
			 0.061545 -0.348809 -0.100431
			 0.061612 -0.362231 -0.099502
			 0.066152 -0.366569 -0.101133
			 0.071235 -0.363400 -0.106877
			 0.073286 -0.361136 -0.115950
			 0.072510 -0.354760 -0.116452
			 0.057445 -0.346283 -0.099887
			 0.056551 -0.357543 -0.101497
			 0.070580 -0.348847 -0.116800
			 0.057612 -0.334786 -0.102246
			 0.067518 -0.339093 -0.116938
			 0.062154 -0.331415 -0.110725
			 0.053000 -0.337334 -0.099019
			 0.045935 -0.361685 -0.106887
			 0.048335 -0.367298 -0.106505
			 0.062216 -0.368484 -0.100388
			 0.072046 -0.369734 -0.106548
			 0.067067 -0.372686 -0.101966
			 0.069223 -0.353956 -0.132299
			 0.073395 -0.366608 -0.123737
			 0.070388 -0.359840 -0.133946
			 0.040227 -0.352794 -0.106352
			 0.067429 -0.347885 -0.129656
			 0.066548 -0.348047 -0.131137
			 0.052410 -0.325970 -0.102605
			 0.063390 -0.338214 -0.133524
			 0.062775 -0.329924 -0.118233
			 0.057159 -0.322786 -0.109374
			 0.034509 -0.344317 -0.106024
			 0.045923 -0.329538 -0.098168
			 0.042495 -0.330941 -0.098797
			 0.048413 -0.366308 -0.113054
			 0.046119 -0.360569 -0.113962
			 0.050533 -0.372995 -0.106195
			 0.050734 -0.371980 -0.112514
			 0.063186 -0.374606 -0.101017
			 0.072217 -0.376486 -0.105375
			 0.073287 -0.373309 -0.123794
			 0.068816 -0.378517 -0.102149
			 0.066754 -0.354631 -0.135433
			 0.072638 -0.372339 -0.132485
			 0.072109 -0.365910 -0.132567
			 0.067983 -0.360694 -0.135651
			 0.069314 -0.366680 -0.136077
			 0.039945 -0.351989 -0.112076
			 0.064403 -0.348538 -0.135207
			 0.051251 -0.314499 -0.108388
			 0.042517 -0.320088 -0.097581
			 0.060324 -0.338957 -0.136165
			 0.058820 -0.329168 -0.133593
			 0.057758 -0.321167 -0.117732
			 0.053050 -0.312496 -0.115862
			 0.036236 -0.333170 -0.101996
			 0.027269 -0.336818 -0.103786
			 0.024865 -0.337322 -0.107180
			 0.033752 -0.343626 -0.112328
			 0.039366 -0.321639 -0.096545
			 0.053870 -0.362346 -0.123054
			 0.056215 -0.368196 -0.121224
			 0.041663 -0.350790 -0.114816
			 0.047477 -0.357140 -0.118481
			 0.052120 -0.356316 -0.124248
			 0.052019 -0.378909 -0.106626
			 0.052838 -0.377610 -0.112958
			 0.057561 -0.374221 -0.121337
			 0.063240 -0.381067 -0.102195
			 0.072659 -0.382904 -0.105632
			 0.073649 -0.379690 -0.124562
			 0.073065 -0.378805 -0.132461
			 0.069781 -0.384754 -0.102010
			 0.058497 -0.351237 -0.134207
			 0.061593 -0.357011 -0.135340
			 0.070389 -0.372853 -0.136032
			 0.060200 -0.364479 -0.134170
			 0.063409 -0.369521 -0.135176
			 0.061053 -0.350158 -0.134306
			 0.044927 -0.305975 -0.109983
			 0.036998 -0.311513 -0.097311
			 0.055097 -0.341477 -0.135860
			 0.055939 -0.330016 -0.136162
			 0.053338 -0.320765 -0.132169
			 0.050874 -0.311947 -0.125136
			 0.046328 -0.303845 -0.119322
			 0.028734 -0.325577 -0.101049
			 0.019820 -0.329431 -0.101422
			 0.024099 -0.336415 -0.114844
			 0.016337 -0.330531 -0.104064
			 0.014641 -0.330117 -0.111206
			 0.035629 -0.342332 -0.115223
			 0.025629 -0.335422 -0.116822
			 0.033169 -0.313658 -0.094457
			 0.054322 -0.360905 -0.131509
			 0.055330 -0.367435 -0.129221
			 0.057510 -0.372893 -0.130601
			 0.043519 -0.337984 -0.120670
			 0.044756 -0.348973 -0.117643
			 0.046743 -0.353632 -0.118292
			 0.049206 -0.351903 -0.121569
			 0.052964 -0.354119 -0.132383
			 0.054621 -0.384500 -0.105760