<?xml version="1.0"?>
<VTKFile type="PolyData" version="0.1" byte_order="LittleEndian" compressor="vtkZLibDataCompressor">
	<PolyData>
		<Piece NumberOfPoints="321" NumberOfVerts="0" NumberOfLines="0" NumberOfStrips="0" NumberOfPolys="638">
		<PointData Normals="Normals">
		<DataArray type="Float32" Name="Normals" NumberOfComponents="3" format="ascii">
			 0.394894 -0.291643  0.871208
			 0.463738 -0.867671  0.179152
			 0.933061 -0.197283 -0.300793
			-0.274910 -0.935741  0.220939
			 0.843509  0.381984 -0.377599
			-0.734616 -0.514471  0.442334
			 0.927656  0.373204 -0.013160
			 0.510664 -0.065571  0.857276
			-0.700938 -0.586578  0.405724
			 0.743315 -0.430985 -0.511601
			-0.430665 -0.850266  0.302613
			 0.696308  0.253686 -0.671416
			 0.815724  0.302398 -0.493102
			 0.871803  0.319979 -0.370907
			-0.768985 -0.457107  0.446895
			-0.731480 -0.541846  0.413932
			-0.752869 -0.513791  0.411348
			 0.873279  0.303022  0.381526
			 0.935968  0.327598 -0.129007
			-0.139583 -0.410233  0.901236
			-0.732551 -0.574929  0.364452
			-0.034643 -0.864270 -0.501833
			-0.418433 -0.564194 -0.711758
			 0.709172  0.216544 -0.670957
			 0.848816  0.273825 -0.452251
			-0.792018 -0.464478  0.396191
			-0.768862 -0.515394  0.378444
			 0.920155  0.343469  0.188002
			 0.612894  0.140800  0.777520
			 0.898648  0.376279 -0.225493
			-0.462456 -0.480474  0.745171
			-0.756954 -0.558676  0.338971
			-0.392087 -0.544491 -0.741484
			 0.712511  0.174810 -0.679536
			 0.848443  0.293706 -0.440320
			-0.788123 -0.487773  0.375419
			-0.792348 -0.503443  0.344572
			 0.885323  0.303491  0.352274
			 0.914037  0.372182 -0.161297
			 0.465460  0.023998  0.884744
			-0.363818 -0.374990  0.852654
			-0.787806 -0.523603  0.324348
			-0.335910 -0.665571 -0.666468
			 0.703321  0.083294 -0.705976
			 0.856016  0.265886 -0.443330
			-0.827028 -0.433116  0.358379
			-0.836210 -0.439952  0.327407
			 0.970385  0.229454 -0.075526
			 0.850941  0.109905  0.513634
			 0.889252  0.281516 -0.360527
			 0.244448 -0.115432  0.962767
			-0.584989 -0.419478  0.694137
			-0.862782 -0.428874  0.267722
			-0.808855 -0.481078  0.338108
			-0.490825 -0.537260 -0.685888
			 0.448228  0.108579 -0.887300
			 0.708863  0.187990 -0.679833
			 0.752453  0.248260 -0.610067
			-0.882323 -0.348115  0.316736
			 0.885556  0.231497 -0.402741
			 0.966769  0.224189 -0.122873
			 0.910875  0.096130  0.401330
			 0.477836 -0.038265  0.877615
			-0.281476 -0.241887  0.928581
			-0.785178 -0.376899  0.491369
			-0.914202 -0.321588  0.246608
			-0.916728 -0.328545  0.227306
			-0.670026 -0.247811 -0.699754
			-0.698278 -0.093496 -0.709695
			 0.439235  0.184016 -0.879324
			 0.502489  0.227318 -0.834165
			 0.743297  0.245773 -0.622178
			 0.735120  0.295281 -0.610253
			 0.899648  0.236999 -0.366695
			 0.960512  0.244169 -0.133413
			 0.938759  0.157178  0.306639
			 0.509857 -0.078510  0.856669
			-0.157514 -0.214892  0.963852
			-0.736829 -0.322148  0.594394
			-0.926805 -0.301964  0.223271
			-0.989372 -0.097739 -0.107655
			-0.979196 -0.146484  0.140418
			-0.227429  0.178406 -0.957313
			-0.169046  0.284030 -0.943796
			 0.547860  0.327713 -0.769710
			 0.135243  0.330205 -0.934170
			 0.748141  0.232452 -0.621492
			 0.933538  0.223069 -0.280619
			 0.983688  0.175718  0.038487
			 0.755124  0.007763  0.655536
			 0.076714 -0.164447  0.983398
			-0.559779 -0.264029  0.785452
			-0.894869 -0.280757  0.346964
			-0.981477 -0.142391  0.128170
			-0.909929  0.090124 -0.404854
			-0.947732  0.055134 -0.314267
			-0.680180  0.145368 -0.718487
			 0.317240  0.216263 -0.923358
			 0.913336  0.216612 -0.344814
			 0.740293  0.219800 -0.635338
			 0.974193  0.189683 -0.122346
			 0.934430  0.084439  0.345993
			 0.336120 -0.099573  0.936541
			-0.333725 -0.199868  0.921238
			-0.765952 -0.232491  0.599388
			-0.959830 -0.172922  0.220963
			-0.994628 -0.066740  0.079132
			-0.703049  0.100284 -0.704034
			 0.370893  0.247167 -0.895180
			 0.901330  0.209880 -0.378887
			 0.977745  0.161257 -0.134208
			 0.717761  0.244488 -0.651955
			 0.908925  0.041290  0.414911
			 0.370639 -0.113608  0.921802
			-0.372048 -0.209741  0.904207
			-0.832774 -0.213506  0.510787
			-0.982834 -0.136906  0.123666
			-0.996290 -0.062639  0.059022
			-0.652507  0.152810 -0.742215
			 0.437936  0.294761 -0.849310
			 0.926422  0.199246 -0.319442
			 0.766324  0.282699 -0.576913
			 0.991814  0.125582 -0.023134
			 0.868593  0.044591  0.493516
			 0.286860 -0.171658  0.942467
			-0.368321 -0.217237  0.903962
			-0.808352 -0.199944  0.553705
			-0.976566 -0.150036  0.154298
			-0.991271 -0.127767  0.032507
			-0.634477  0.092917 -0.767337
			 0.488584  0.320772 -0.811413
			 0.803983  0.292736 -0.517606
			 0.925909  0.209686 -0.314206
			 0.991422  0.105311  0.077408
			 0.717088 -0.069623  0.693497
			-0.622131 -0.255569  0.740026
			 0.017471 -0.299387  0.953972
			-0.959159 -0.075286  0.272664
			-0.988849 -0.114443  0.095298
			-0.742107  0.066423 -0.666983
			 0.678832  0.272360 -0.681915
			 0.873179  0.193811 -0.447209
			 0.940402  0.108105 -0.322425
			 0.996964  0.068755  0.036554
			 0.831685 -0.037691  0.553967
			 0.255346 -0.196719  0.946626
			-0.575936 -0.268562  0.772122
			-0.949800 -0.084363  0.301270
			-0.987434 -0.062247  0.145256
			-0.969649 -0.173277  0.172502
			-0.986054 -0.143719  0.083913
			-0.153830  0.174979 -0.972481
			 0.754203  0.183137 -0.630587
			 0.907968  0.085678 -0.410188
			 0.994798  0.039024 -0.094094
			 0.856781 -0.009511  0.515593
			 0.398032 -0.129410  0.908198
			-0.501845 -0.310392  0.807346
			-0.960067 -0.090909  0.264587
			-0.986332 -0.016280  0.163961
			-0.964978 -0.145019  0.218601
			-0.959841 -0.078020  0.269478
			-0.930218  0.041594 -0.364642
			 0.191744  0.246021 -0.950109
			 0.846429  0.134874 -0.515137
			 0.561407  0.170631 -0.809757
			 0.938908  0.071881 -0.336580
			 0.992076  0.031335  0.121665
			 0.739241 -0.072302  0.669549
			 0.145897 -0.197309  0.969424
			-0.983464 -0.156896  0.090455
			-0.783653 -0.285934  0.551480
			-0.991054 -0.034046  0.129048
			-0.900922  0.032057 -0.432795
			-0.963122 -0.092456  0.252682
			 0.807422  0.160653 -0.567681
			 0.945420  0.085814 -0.314351
			 0.130423  0.132264 -0.982597
			 0.984156  0.034920  0.173832
			 0.783240  0.011541  0.621612
			 0.200637 -0.084661  0.976001
			-0.581681 -0.163913  0.796730
			-0.975958 -0.136578  0.169860
			-0.994028 -0.106971  0.021584
			-0.956829 -0.083430  0.278421
			-0.404046  0.040867 -0.913825
			-0.985652  0.065243  0.155668
			 0.809316  0.157239 -0.565936
			 0.926611  0.139388 -0.349232
			 0.994092  0.041118  0.100450
			 0.784516  0.052937  0.617846
			 0.209468  0.027935  0.977417
			-0.628275 -0.092519  0.772470
			-0.999930  0.002634  0.011534
			-0.913737 -0.028544  0.405301
			-0.901647 -0.181078  0.392739
			 0.684151  0.182711 -0.706084
			-0.043365  0.065631 -0.996901
			-0.973588 -0.227060  0.023892
			-0.982973  0.148961 -0.107585
			-0.957701  0.051565  0.283108
			 0.795276  0.223025 -0.563734
			 0.842399  0.215898 -0.493712
			 0.928723  0.175649 -0.326529
			 0.995903 -0.032321  0.084450
			 0.795046 -0.059228  0.603650
			 0.189645 -0.008139  0.981819
			-0.737441  0.005358  0.675391
			-0.966734  0.082885 -0.241984
			-0.873963 -0.193677  0.445733
			-0.888407 -0.108308  0.446097
			 0.633942  0.135773 -0.761369
			-0.732019 -0.188370 -0.654726
			-0.974371  0.152464 -0.165399
			-0.972314 -0.039667  0.230288
			 0.824439  0.220698 -0.521146
			 0.859474  0.209770 -0.466155
			 0.962258  0.125517 -0.241466
			 0.914441 -0.056370  0.400774
			 0.508883  0.009431  0.860784
			-0.889697  0.162492  0.426657
			-0.236691  0.172256  0.956193
			-0.980276 -0.173184  0.095220
			-0.874814 -0.131115  0.466378
			-0.865952 -0.149337  0.477310
			-0.898416 -0.105556  0.426270
			 0.089789  0.022070 -0.995716
			 0.678865  0.112872 -0.725536
			 0.810418  0.114084 -0.574637
			-0.875077  0.366901  0.315632
			-0.988405  0.097577  0.116339
			 0.848799  0.127372 -0.513144
			 0.905888  0.055007 -0.419931
			 0.983375  0.045192  0.175872
			 0.521080  0.052049  0.851920
			-0.126751  0.269962  0.954492
			-0.869696 -0.192315  0.454581
			-0.843147 -0.154663 -0.514958
			-0.864180 -0.192815  0.464774
			-0.949791  0.063519  0.306371
			 0.621019  0.138799 -0.771408
			 0.820078  0.102801 -0.562942
			-0.648075  0.312364  0.694570
			 0.926573  0.052863 -0.372381
			 0.869344  0.204814  0.449769
			 0.292609  0.222671  0.929945
			-0.869932 -0.317060  0.377744
			-0.335913 -0.071953 -0.939141
			-0.847312 -0.118242  0.517765
			-0.722525  0.403135  0.561639
			-0.916905  0.015602  0.398802
			 0.688122  0.149558 -0.710014
			 0.838419  0.135292 -0.527968
			 0.805121  0.165568 -0.569532
			 0.971216  0.075440 -0.225939
			 0.835078  0.312415  0.452815
			 0.148928  0.457243  0.876784
			-0.817459 -0.140890  0.558490
			-0.969056 -0.175088  0.173996
			 0.419970  0.177886 -0.889933
			-0.607820  0.058296 -0.791932
			-0.806087  0.273885  0.524605
			-0.163777  0.501197  0.849693
			 0.782093  0.206625 -0.587909
			 0.967864  0.140368 -0.208654
			 0.811547  0.341145  0.474353
			-0.744454  0.203434  0.635926
			-0.915725 -0.095126  0.390383
			-0.791599 -0.031790  0.610213
			-0.675798  0.167445 -0.717815
			 0.429043  0.205367 -0.879629
			-0.081828  0.399359  0.913135
			 0.827634 -0.023202 -0.560788
			 0.792053  0.067104 -0.606753
			 0.923269  0.041530  0.381904
			-0.726409  0.011099  0.687173
			-0.384879  0.201264  0.900756
			-0.905641  0.102105 -0.411569
			-0.857270 -0.043182  0.513053
			 0.661310  0.166645 -0.731367
			 0.203194  0.254687 -0.945435
			 0.785685 -0.089788 -0.612076
			 0.861691 -0.070920 -0.502454
			 0.812613  0.192888  0.549958
			-0.642060  0.054959  0.764682
			-0.815429  0.149691  0.559168
			 0.733955  0.036691  0.678207
			-0.928326  0.229740  0.292286
			-0.430756  0.416283 -0.800723
			 0.518861  0.222558 -0.825379
			 0.659511  0.061382 -0.749185
			 0.827458 -0.066452 -0.557582
			-0.825055  0.192006  0.531430
			-0.581549 -0.022076  0.813212
			-0.460362  0.555577 -0.692388
			 0.852538 -0.111802 -0.510568
			 0.659050 -0.318126  0.681505
			 0.665363  0.025885 -0.746071
			-0.828210  0.161102  0.536763
			-0.528303  0.548633 -0.647995
			-0.569685 -0.237208  0.786887
			 0.677148  0.074376 -0.732079
			 0.911530  0.072052 -0.404872
			 0.654300 -0.164427  0.738143
			-0.896060 -0.110009  0.430086
			-0.451502  0.732027 -0.510179
			-0.481077 -0.284497  0.829232
			 0.684547  0.358032 -0.634987
			 0.828029  0.503020 -0.247667
			 0.534825  0.358852  0.764975
			-0.625858  0.586989 -0.513562
			-0.868012 -0.255385  0.425833
			-0.959176 -0.111614  0.259854
			 0.489264  0.675926  0.551131
			-0.335323  0.073705  0.939216
			 0.810446  0.446177 -0.379610
			 0.595705  0.498507 -0.629782
			-0.793370  0.600267 -0.101210
			-0.646519  0.507789  0.569354
			 0.432888  0.773666  0.462655
			 0.393620  0.870225 -0.296262
		</DataArray>
	</PointData>
	<Points>
		<DataArray type="Float32" NumberOfComponents="3" format="ascii">
			 0.018725 -0.140253 -0.125303
			 0.020487 -0.145731 -0.127521
			 0.019726 -0.145254 -0.132431
			 0.018223 -0.146016 -0.131528
			 0.016541 -0.139745 -0.134044
			 0.014509 -0.140775 -0.132834
			 0.016338 -0.134564 -0.126001
			 0.015833 -0.135258 -0.122972
			 0.014701 -0.135386 -0.125066
			 0.013047 -0.146124 -0.144094
			 0.011613 -0.146852 -0.143231
			 0.009755 -0.140726 -0.145284
			 0.011912 -0.134530 -0.137519
			 0.014156 -0.134242 -0.133580
			 0.008094 -0.141569 -0.144295
			 0.011059 -0.135799 -0.131810
			 0.008945 -0.136039 -0.135720
			 0.013566 -0.129632 -0.122968
			 0.014031 -0.128527 -0.128653
			 0.012439 -0.130361 -0.121311
			 0.009935 -0.130527 -0.126682
			 0.009772 -0.147084 -0.146488
			 0.005908 -0.141839 -0.148200
			 0.006736 -0.135196 -0.146609
			 0.010176 -0.128632 -0.137854
			 0.004418 -0.136326 -0.145502
			 0.005725 -0.130804 -0.135711
			 0.012236 -0.123390 -0.124402
			 0.010245 -0.124897 -0.120119
			 0.011862 -0.122860 -0.128653
			 0.008869 -0.125469 -0.120077
			 0.006247 -0.125559 -0.126217
			 0.002365 -0.136457 -0.149936
			 0.004364 -0.129554 -0.146973
			 0.007496 -0.122873 -0.139730
			 0.001188 -0.131104 -0.145444
			 0.001575 -0.125719 -0.137162
			 0.009545 -0.118207 -0.122726
			 0.009542 -0.117521 -0.127004
			 0.006922 -0.119861 -0.119141
			 0.005463 -0.120487 -0.118976
			 0.003300 -0.120467 -0.124625
			-0.001848 -0.131306 -0.151953
			 0.000362 -0.124058 -0.150597
			 0.004595 -0.117174 -0.141802
			-0.003454 -0.125892 -0.148941
			-0.002273 -0.120417 -0.139185
			 0.006935 -0.108961 -0.125720
			 0.006373 -0.110105 -0.120039
			 0.002396 -0.108575 -0.139718
			 0.003822 -0.111596 -0.117280
			 0.001238 -0.112517 -0.118162
			-0.005791 -0.112305 -0.137447
			-0.001394 -0.112891 -0.122557
			-0.005879 -0.125974 -0.154622
			-0.004502 -0.118937 -0.154090
			-0.001053 -0.118002 -0.151086
			-0.003152 -0.109162 -0.150250
			-0.007535 -0.120368 -0.152934
			 0.001143 -0.102634 -0.139088
			 0.006050 -0.103054 -0.123935
			 0.005958 -0.103744 -0.119878
			 0.003231 -0.105359 -0.116804
			 0.000347 -0.106610 -0.116390
			-0.002574 -0.107401 -0.118929
			-0.010133 -0.111724 -0.152154
			-0.008254 -0.106848 -0.136891
			-0.008548 -0.120359 -0.155580
			-0.010769 -0.111640 -0.154306
			-0.006606 -0.110118 -0.153132
			-0.006672 -0.103809 -0.151751
			-0.005165 -0.103432 -0.150243
			-0.005605 -0.097345 -0.148436
			 0.000658 -0.096632 -0.136867
			 0.004275 -0.097081 -0.124826
			 0.004386 -0.098072 -0.118380
			 0.001854 -0.099539 -0.115727
			-0.001126 -0.100806 -0.115461
			-0.004351 -0.101706 -0.118105
			-0.009017 -0.101520 -0.131186
			-0.012127 -0.105893 -0.152728
			-0.011572 -0.099905 -0.147766
			-0.011054 -0.105297 -0.153695
			-0.010982 -0.098959 -0.152139
			-0.007013 -0.097669 -0.150020
			-0.011165 -0.092836 -0.149907
			-0.005888 -0.091240 -0.146344
			 0.001353 -0.090846 -0.130288
			 0.003263 -0.091688 -0.120169
			 0.002153 -0.092937 -0.115238
			-0.000477 -0.094182 -0.114215
			-0.004762 -0.095694 -0.115763
			-0.007822 -0.096128 -0.120884
			-0.011430 -0.094984 -0.137218
			-0.012103 -0.099570 -0.151211
			-0.012484 -0.093498 -0.149156
			-0.012493 -0.087121 -0.148052
			-0.009488 -0.085954 -0.147629
			-0.000856 -0.084769 -0.132945
			-0.007135 -0.085280 -0.145805
			 0.002197 -0.085208 -0.122410
			 0.002084 -0.086300 -0.115904
			-0.000039 -0.087572 -0.113417
			-0.003532 -0.088979 -0.113600
			-0.007486 -0.090167 -0.116310
			-0.010176 -0.090137 -0.123369
			-0.012262 -0.087423 -0.145586
			-0.012954 -0.080924 -0.146983
			-0.010250 -0.079896 -0.146466
			-0.002930 -0.078798 -0.134596
			 0.001085 -0.079400 -0.120586
			-0.008076 -0.079292 -0.144668
			 0.001074 -0.080396 -0.114412
			-0.000833 -0.081540 -0.112173
			-0.005607 -0.083388 -0.112876
			-0.008947 -0.084232 -0.116168
			-0.011225 -0.083879 -0.124184
			-0.012770 -0.081238 -0.144564
			-0.013067 -0.074645 -0.145537
			-0.010385 -0.073707 -0.144514
			-0.001278 -0.072866 -0.126477
			-0.008370 -0.073193 -0.142571
			 0.000995 -0.073467 -0.116921
			 0.000102 -0.074467 -0.112989
			-0.002406 -0.075824 -0.110954
			-0.006518 -0.077330 -0.112098
			-0.010019 -0.078213 -0.115554
			-0.012318 -0.077904 -0.123350
			-0.012972 -0.075064 -0.142690
			-0.014128 -0.068775 -0.143971
			-0.011470 -0.067851 -0.142928
			-0.009285 -0.067308 -0.140714
			-0.001817 -0.066860 -0.124419
			-0.000005 -0.067463 -0.116033
			-0.001969 -0.069182 -0.110362
			-0.008411 -0.071648 -0.111492
			-0.004510 -0.070408 -0.109234
			-0.011550 -0.072091 -0.116755
			-0.013801 -0.069195 -0.140517
			-0.015137 -0.062848 -0.142623
			-0.010909 -0.061597 -0.139595
			-0.007813 -0.061321 -0.133399
			-0.002612 -0.060858 -0.122992
			-0.000286 -0.061088 -0.115616
			-0.001977 -0.062758 -0.109545
			-0.004620 -0.064158 -0.107591
			-0.007841 -0.065363 -0.108332
			-0.011278 -0.065789 -0.114467
			-0.013012 -0.063894 -0.130687
			-0.014509 -0.063157 -0.139091
			-0.015879 -0.057061 -0.139727
			-0.015506 -0.056594 -0.141674
			-0.011286 -0.055449 -0.138013
			-0.002826 -0.054404 -0.122889
			-0.000998 -0.054844 -0.115483
			-0.002330 -0.056454 -0.108867
			-0.005301 -0.058072 -0.106399
			-0.008366 -0.059270 -0.106783
			-0.011362 -0.059656 -0.112033
			-0.011868 -0.057982 -0.123746
			-0.015226 -0.057211 -0.137126
			-0.016355 -0.050955 -0.138131
			-0.016791 -0.050907 -0.139545
			-0.015351 -0.050243 -0.139995
			-0.004968 -0.048445 -0.124639
			-0.013751 -0.049762 -0.138894
			-0.002145 -0.048022 -0.120057
			-0.000902 -0.048590 -0.113342
			-0.003253 -0.050546 -0.107189
			-0.007822 -0.052834 -0.104629
			-0.011554 -0.053496 -0.110052
			-0.010936 -0.053904 -0.105935
			-0.010976 -0.051555 -0.120650
			-0.016422 -0.044416 -0.138177
			-0.013255 -0.045085 -0.125932
			-0.006973 -0.042266 -0.127402
			-0.002116 -0.041692 -0.118559
			-0.015675 -0.044024 -0.138710
			-0.001502 -0.042441 -0.112336
			-0.003854 -0.044424 -0.106008
			-0.007601 -0.046361 -0.103541
			-0.011207 -0.047695 -0.104455
			-0.012121 -0.047660 -0.107007
			-0.011391 -0.045477 -0.118721
			-0.013923 -0.038803 -0.125919
			-0.017024 -0.038171 -0.137767
			-0.012037 -0.039185 -0.118718
			-0.008087 -0.036181 -0.127307
			-0.002243 -0.035335 -0.117632
			-0.001726 -0.036071 -0.111733
			-0.003351 -0.037499 -0.107004
			-0.008247 -0.040073 -0.103508
			-0.011924 -0.041495 -0.104057
			-0.013245 -0.041511 -0.107337
			-0.013503 -0.032239 -0.124878
			-0.016551 -0.032467 -0.131246
			-0.013555 -0.030998 -0.132733
			-0.018097 -0.032325 -0.136084
			-0.018547 -0.032617 -0.135418
			-0.010202 -0.032879 -0.112464
			-0.010323 -0.032001 -0.118234
			-0.009267 -0.030161 -0.126979
			-0.005821 -0.029705 -0.121006
			-0.002738 -0.029298 -0.115660
			-0.001783 -0.029622 -0.111203
			-0.004007 -0.031206 -0.107036
			-0.009153 -0.033890 -0.103488
			-0.012606 -0.035205 -0.104140
			-0.012380 -0.034582 -0.107438
			-0.018134 -0.029476 -0.133501
			-0.012398 -0.028999 -0.121810
			-0.016035 -0.028442 -0.134574
			-0.019311 -0.029574 -0.135900
			-0.010005 -0.029641 -0.111702
			-0.010196 -0.028815 -0.117325
			-0.008112 -0.026886 -0.124000
			-0.005901 -0.026692 -0.119552
			-0.002026 -0.026353 -0.111757
			-0.001930 -0.026771 -0.108915
			-0.005613 -0.028878 -0.105222
			-0.012941 -0.031970 -0.104719
			-0.010518 -0.031193 -0.103362
			-0.020029 -0.026686 -0.135306
			-0.014836 -0.026097 -0.125699
			-0.018194 -0.026478 -0.131913
			-0.012692 -0.025854 -0.121732
			-0.019340 -0.026270 -0.136128
			-0.015447 -0.025096 -0.133483
			-0.011310 -0.024324 -0.127713
			-0.010808 -0.027703 -0.105415
			-0.009644 -0.025892 -0.113697
			-0.009098 -0.023995 -0.124103
			-0.004113 -0.023255 -0.115971
			-0.001978 -0.023492 -0.109036
			-0.003923 -0.024737 -0.106268
			-0.009541 -0.027359 -0.104314
			-0.018594 -0.023277 -0.132447
			-0.020369 -0.023434 -0.136010
			-0.014542 -0.022920 -0.124311
			-0.009267 -0.022455 -0.113722
			-0.016164 -0.022076 -0.133711
			-0.010622 -0.020982 -0.126347
			-0.008688 -0.023557 -0.105385
			-0.003077 -0.019858 -0.114054
			-0.001739 -0.020162 -0.108743
			-0.005506 -0.022233 -0.105493
			-0.020220 -0.020660 -0.132481
			-0.020539 -0.020275 -0.135695
			-0.014228 -0.019737 -0.122912
			-0.008023 -0.019661 -0.107523
			-0.009115 -0.018949 -0.114746
			-0.016396 -0.018979 -0.133171
			-0.005450 -0.017058 -0.117142
			-0.010495 -0.017797 -0.125438
			-0.002918 -0.016687 -0.112977
			-0.002784 -0.017199 -0.109453
			-0.005613 -0.018754 -0.107004
			-0.015375 -0.016868 -0.123294
			-0.021497 -0.017865 -0.132743
			-0.018766 -0.016406 -0.134838
			-0.021195 -0.017325 -0.135324
			-0.007634 -0.015608 -0.111348
			-0.005676 -0.015126 -0.109341
			-0.011593 -0.014887 -0.125952
			-0.003140 -0.013524 -0.112826
			-0.003168 -0.013922 -0.110420
			-0.009011 -0.012380 -0.114545
			-0.020789 -0.014662 -0.130455
			-0.015007 -0.013542 -0.122646
			-0.021236 -0.014165 -0.134692
			-0.019314 -0.013438 -0.134294
			-0.004818 -0.011205 -0.111141
			-0.006175 -0.010886 -0.116595
			-0.011885 -0.011848 -0.125198
			-0.002954 -0.010343 -0.111740
			-0.010234 -0.009204 -0.117028
			-0.005091 -0.007795 -0.112651
			-0.021834 -0.011293 -0.133684
			-0.020083 -0.011428 -0.128373
			-0.016958 -0.009676 -0.131288
			-0.020447 -0.010660 -0.134081
			-0.007435 -0.007646 -0.119572
			-0.004976 -0.007122 -0.116546
			-0.003026 -0.006956 -0.112590
			-0.008736 -0.005585 -0.115319
			-0.017214 -0.007651 -0.124138
			-0.003769 -0.003961 -0.112725
			-0.020928 -0.008044 -0.131188
			-0.021119 -0.007800 -0.133192
			-0.020162 -0.007512 -0.132535
			-0.015706 -0.006174 -0.129475
			-0.006018 -0.003962 -0.118468
			-0.016052 -0.003850 -0.124415
			-0.006944 -0.001793 -0.113932
			-0.019328 -0.004031 -0.131661
			-0.005304 -0.000456 -0.118048
			-0.003193 -0.000468 -0.112584
			-0.013966 -0.002460 -0.127727
			-0.014626 -0.000142 -0.123441
			-0.018364 -0.000552 -0.130439
			-0.006535  0.001518 -0.113082
			-0.011468  0.001479 -0.125449
			-0.003263  0.003223 -0.115325
			-0.002862  0.002765 -0.111454
			-0.011813  0.003814 -0.120459
			-0.015860  0.003388 -0.128149
			-0.007251  0.004295 -0.111788
			-0.008785  0.005328 -0.122136
			-0.004091  0.006032 -0.114514
			-0.003694  0.005564 -0.110593
			-0.013365  0.007112 -0.124546
			-0.010402  0.006607 -0.113829
			-0.012524  0.006968 -0.121500
			-0.005591  0.008349 -0.112373
			-0.008990  0.006913 -0.112119
			-0.007091  0.008234 -0.115485
			-0.010269  0.007987 -0.122074
			-0.012588  0.010081 -0.120629
			-0.010534  0.009718 -0.113118
			-0.007601  0.011018 -0.113709
			-0.008514  0.011316 -0.117895
		</DataArray>
	</Points>
			<Polys>
				<DataArray type="Int32" Name="connectivity" format="ascii">
					0 1 2 
					1 0 3 
					2 4 0 
					0 5 3 
					6 0 4 
					0 6 7 
					7 8 0 
					5 0 8 
					2 1 3 
					9 2 3 
					4 2 9 
					3 5 10 
					9 3 10 
					9 11 4 
					12 4 11 
					12 13 4 
					4 13 6 
					5 14 10 
					15 16 5 
					8 15 5 
					14 5 16 
					17 7 6 
					18 6 13 
					6 18 17 
					8 7 19 
					7 17 19 
					8 20 15 
					19 20 8 
					11 9 21 
					21 9 10 
					14 21 10 
					21 22 11 
					11 23 12 
					11 22 23 
					24 13 12 
					24 12 23 
					24 18 13 
					14 22 21 
					14 25 22 
					16 25 14 
					15 26 16 
					20 26 15 
					16 26 25 
					27 17 18 
					17 27 28 
					19 17 28 
					29 18 24 
					18 29 27 
					19 30 20 
					28 30 19 
					30 31 20 
					31 26 20 
					22 32 23 
					25 32 22 
					33 23 32 
					23 33 24 
					34 29 24 
					34 24 33 
					26 35 25 
					32 25 35 
					26 36 35 
					31 36 26 
					37 28 27 
					38 27 29 
					38 37 27 
					39 30 28 
					37 39 28 
					38 29 34 
					30 39 40 
					40 41 30 
					41 31 30 
					36 31 41 
					32 42 33 
					35 42 32 
					43 33 42 
					33 43 34 
					44 38 34 
					44 34 43 
					36 45 35 
					45 42 35 
					36 46 45 
					41 46 36 
					47 37 38 
					39 37 48 
					47 48 37 
					49 38 44 
					38 49 47 
					39 48 50 
					40 39 50 
					40 51 41 
					50 51 40 
					41 52 46 
					51 53 41 
					53 52 41 
					42 54 43 
					45 54 42 
					55 43 54 
					43 56 44 
					43 55 56 
					44 57 49 
					57 44 56 
					46 58 45 
					58 54 45 
					46 52 58 
					47 59 60 
					61 48 47 
					60 61 47 
					59 47 49 
					48 61 62 
					62 50 48 
					59 49 57 
					50 63 51 
					50 62 63 
					51 64 53 
					63 64 51 
					52 65 58 
					53 66 52 
					52 66 65 
					64 66 53 
					54 67 55 
					58 67 54 
					68 55 67 
					55 68 69 
					69 56 55 
					56 69 57 
					70 57 69 
					57 71 59 
					57 70 71 
					58 68 67 
					58 65 68 
					72 59 71 
					59 72 73 
					73 60 59 
					60 74 75 
					60 73 74 
					75 61 60 
					61 75 76 
					62 61 76 
					76 77 62 
					63 62 77 
					63 78 64 
					77 78 63 
					64 79 66 
					78 79 64 
					66 80 65 
					80 68 65 
					66 81 80 
					79 81 66 
					82 69 68 
					68 80 82 
					82 70 69 
					70 83 84 
					70 82 83 
					71 70 84 
					71 84 72 
					85 86 72 
					85 72 84 
					86 73 72 
					87 74 73 
					73 86 87 
					74 87 88 
					88 75 74 
					75 88 89 
					76 75 89 
					89 90 76 
					77 76 90 
					77 91 78 
					90 91 77 
					78 92 79 
					91 92 78 
					79 93 81 
					92 93 79 
					94 82 80 
					81 94 80 
					81 95 94 
					93 95 81 
					82 94 83 
					95 83 94 
					85 84 83 
					95 85 83 
					85 96 97 
					97 86 85 
					96 85 95 
					98 87 86 
					86 97 99 
					86 99 98 
					87 98 100 
					100 88 87 
					88 100 101 
					89 88 101 
					89 101 102 
					90 89 102 
					91 90 103 
					102 103 90 
					91 104 92 
					103 104 91 
					92 105 93 
					104 105 92 
					93 106 95 
					105 106 93 
					106 96 95 
					107 97 96 
					106 107 96 
					97 107 108 
					108 99 97 
					98 109 110 
					109 98 99 
					110 100 98 
					99 111 109 
					99 108 111 
					110 101 100 
					101 112 113 
					101 110 112 
					102 101 113 
					102 114 103 
					113 114 102 
					103 115 104 
					114 115 103 
					104 115 105 
					105 116 106 
					115 116 105 
					116 117 106 
					117 107 106 
					118 108 107 
					117 118 107 
					108 118 119 
					111 108 119 
					120 110 109 
					109 121 120 
					121 109 111 
					110 120 122 
					112 110 122 
					111 119 121 
					112 122 123 
					112 123 124 
					113 112 124 
					113 125 114 
					124 125 113 
					114 126 115 
					125 126 114 
					115 127 116 
					115 126 127 
					116 128 117 
					127 128 116 
					128 118 117 
					129 119 118 
					128 129 118 
					119 129 130 
					130 121 119 
					120 131 132 
					122 120 132 
					131 120 121 
					121 130 131 
					122 132 133 
					133 123 122 
					123 133 134 
					134 124 123 
					124 135 125 
					124 134 136 
					136 135 124 
					126 125 135 
					126 137 127 
					135 137 126 
					127 138 128 
					137 138 127 
					138 129 128 
					139 130 129 
					138 139 129 
					130 139 140 
					131 130 140 
					140 141 131 
					132 131 141 
					141 142 132 
					142 133 132 
					133 143 144 
					133 142 143 
					144 134 133 
					134 144 145 
					136 134 145 
					136 146 135 
					135 147 137 
					146 147 135 
					145 146 136 
					137 148 138 
					137 147 148 
					149 139 138 
					138 148 149 
					149 150 139 
					151 140 139 
					150 151 139 
					151 152 140 
					152 141 140 
					141 152 153 
					153 142 141 
					142 153 154 
					154 143 142 
					143 154 155 
					144 143 155 
					144 155 156 
					145 144 156 
					156 157 145 
					146 145 157 
					146 158 147 
					157 158 146 
					147 159 148 
					158 159 147 
					148 160 149 
					148 159 160 
					160 150 149 
					160 161 150 
					161 162 150 
					151 150 162 
					151 163 152 
					162 163 151 
					164 153 152 
					152 163 165 
					152 165 164 
					164 166 153 
					166 154 153 
					154 166 167 
					167 155 154 
					155 168 169 
					155 167 168 
					156 155 169 
					169 157 156 
					157 170 158 
					157 169 171 
					171 170 157 
					158 172 159 
					170 172 158 
					159 161 160 
					172 161 159 
					161 173 162 
					172 174 161 
					174 173 161 
					173 163 162 
					173 165 163 
					164 175 176 
					166 164 176 
					175 164 165 
					165 173 177 
					165 177 175 
					167 166 176 
					167 178 179 
					167 176 178 
					168 167 179 
					168 179 180 
					169 168 180 
					169 180 181 
					171 169 181 
					171 182 170 
					170 183 172 
					182 183 170 
					181 182 171 
					183 174 172 
					174 184 173 
					185 177 173 
					184 185 173 
					183 186 174 
					186 184 174 
					175 185 187 
					185 175 177 
					187 176 175 
					176 188 189 
					176 187 188 
					189 178 176 
					178 189 190 
					190 179 178 
					179 190 191 
					180 179 191 
					192 181 180 
					180 191 192 
					181 192 182 
					182 193 183 
					192 193 182 
					193 186 183 
					186 194 184 
					185 184 195 
					194 195 184 
					196 187 185 
					185 197 196 
					185 198 197 
					195 198 185 
					193 199 186 
					186 199 200 
					200 194 186 
					187 201 202 
					187 196 201 
					202 188 187 
					202 203 188 
					203 189 188 
					189 204 205 
					189 203 204 
					205 190 189 
					190 205 206 
					191 190 206 
					191 206 207 
					207 192 191 
					207 193 192 
					193 207 208 
					208 199 193 
					194 209 195 
					200 210 194 
					210 209 194 
					195 209 198 
					211 201 196 
					196 197 211 
					197 212 211 
					212 197 198 
					209 212 198 
					208 213 199 
					199 214 200 
					213 214 199 
					200 214 210 
					201 211 215 
					215 202 201 
					215 216 202 
					216 203 202 
					216 217 203 
					217 204 203 
					204 217 218 
					218 205 204 
					205 218 219 
					206 205 219 
					220 207 206 
					221 220 206 
					219 221 206 
					207 220 208 
					220 213 208 
					209 222 212 
					210 223 209 
					223 224 209 
					224 222 209 
					214 225 210 