<?xml version="1.0"?>
<VTKFile type="PolyData" version="0.1" byte_order="LittleEndian" compressor="vtkZLibDataCompressor">
	<PolyData>
		<Piece NumberOfPoints="419" NumberOfVerts="0" NumberOfLines="0" NumberOfStrips="0" NumberOfPolys="834">
		<PointData Normals="Normals">
		<DataArray type="Float32" Name="Normals" NumberOfComponents="3" format="ascii">
			-0.113527 -0.611968  0.782692
			-0.036594  0.025993  0.998992
			 0.221850 -0.487930  0.844220
			 0.180833 -0.685087 -0.705660
			 0.333215 -0.392664 -0.857195
			-0.337497 -0.823652  0.455733
			-0.636072 -0.107292  0.764134
			 0.626642 -0.534639 -0.566994
			-0.192308 -0.039314  0.980547
			-0.473750 -0.060338  0.878590
			 0.179835  0.031876  0.983180
			 0.067214 -0.307904  0.949040
			 0.221649 -0.203380  0.953682
			-0.050924 -0.998546 -0.017697
			-0.211695 -0.178165 -0.960959
			-0.038112 -0.150368 -0.987895
			 0.156921 -0.032293 -0.987083
			 0.283599  0.066495 -0.956635
			 0.477272  0.124869 -0.869838
			-0.310104 -0.902314  0.299442
			-0.847753 -0.205921  0.488785
			 0.775259 -0.437863 -0.455246
			-0.565661 -0.395602  0.723552
			-0.267434 -0.306188  0.913634
			 0.651225  0.108499 -0.751089
			-0.432383 -0.861585  0.265927
			 0.318748 -0.167470  0.932927
			 0.003830 -0.570334  0.821404
			 0.267902 -0.484202  0.832933
			-0.311455 -0.117682 -0.942946
			-0.152568 -0.020962 -0.988071
			 0.011274  0.085471 -0.996277
			 0.231993  0.155257 -0.960247
			 0.289540  0.178945 -0.940290
			 0.492598  0.181712 -0.851075
			 0.794916 -0.604090 -0.056423
			-0.079403 -0.874982  0.477599
			-0.871740 -0.332198  0.360159
			-0.851328 -0.366799  0.375099
			 0.807429  0.078541 -0.584714
			 0.967207 -0.017975 -0.253354
			-0.492982 -0.610722  0.619667
			 0.669341  0.060303 -0.740504
			-0.469291 -0.846143  0.252602
			 0.267373 -0.249433  0.930750
			-0.003730 -0.738746  0.673974
			 0.207172 -0.509958  0.834878
			-0.142993  0.173272 -0.974438
			-0.397425 -0.068542 -0.915071
			 0.122472  0.180840 -0.975857
			 0.298223  0.155044 -0.941820
			 0.420072  0.118118 -0.899771
			 0.670213 -0.564958  0.481287
			-0.240699 -0.692538  0.680040
			-0.774826 -0.533451  0.339226
			-0.742476 -0.394114  0.541667
			-0.868201 -0.304470  0.391823
			 0.898978  0.039465 -0.436213
			 0.983038 -0.069619 -0.169677
			-0.483839 -0.703946  0.519961
			 0.894992  0.044885 -0.443819
			 0.660107  0.053709 -0.749249
			-0.653430 -0.756076  0.037138
			 0.395123 -0.343719  0.851901
			-0.197404 -0.803206  0.562042
			 0.094650 -0.765459  0.636485
			 0.467197 -0.650887  0.598392
			 0.294861 -0.750844  0.591008
			-0.170608  0.193012 -0.966250
			 0.110481  0.158605 -0.981141
			-0.617012 -0.196166 -0.762112
			-0.311273  0.127054 -0.941789
			 0.495577  0.174933 -0.850765
			 0.710961 -0.403002  0.576302
			-0.069229 -0.427030  0.901584
			-0.624794 -0.192400  0.756713
			-0.573094 -0.160134  0.803692
			 0.982428 -0.027755 -0.184566
			-0.554398 -0.408393  0.725161
			 0.836970  0.186138 -0.514619
			-0.235796 -0.932811  0.272515
			-0.720281 -0.337616 -0.605979
			-0.165120 -0.593788  0.787497
			 0.199152 -0.712738  0.672564
			-0.400032 -0.888448  0.225022
			 0.402645 -0.591240  0.698794
			 0.369874 -0.673979  0.639489
			-0.210345  0.132842 -0.968560
			 0.187163  0.123569 -0.974526
			-0.566743 -0.048050 -0.822492
			 0.548735  0.270090 -0.791165
			-0.134612 -0.345805  0.928600
			 0.697995 -0.282146  0.658176
			 0.214638  0.037766  0.975963
			-0.425385  0.154726  0.891688
			 0.996993  0.069163  0.034959
			-0.364579  0.095034  0.926311
			 0.835344  0.240414 -0.494370
			-0.778653 -0.323904 -0.537388
			-0.023664 -0.162299  0.986458
			 0.102366 -0.681832  0.724311
			 0.300344 -0.622869  0.722377
			-0.902069 -0.299528 -0.310732
			-0.538350 -0.796310  0.275809
			 0.509981 -0.435295  0.741914
			 0.137347 -0.677668  0.722428
			-0.429471  0.070756 -0.900304
			-0.105723  0.083584 -0.990877
			 0.320906  0.153478 -0.934593
			-0.751371 -0.079626 -0.655059
			 0.623679  0.264527 -0.735561
			 0.428482  0.271004  0.861951
			 0.992240  0.098510 -0.075869
			 0.603935  0.249509  0.756973
			 0.842504  0.206460 -0.497555
			 0.793776  0.258843  0.550381
			 0.356934 -0.003959  0.934121
			 0.112353 -0.332894  0.936247
			 0.179982 -0.602325  0.777696
			 0.402992 -0.620688  0.672566
			-0.891228 -0.341618 -0.298343
			-0.819525 -0.012924 -0.572898
			-0.708113 -0.660850  0.248702
			-0.007682 -0.726751  0.686858
			-0.635013 -0.688408  0.350503
			-0.489072  0.106749 -0.865687
			 0.009752  0.108623 -0.994035
			 0.438831  0.198814 -0.876299
			 0.722222  0.245639 -0.646574
			 0.972664  0.129205 -0.192953
			 0.917680  0.219860 -0.330946
			 0.888235  0.126250  0.441700
			 0.328539 -0.115121  0.937448
			 0.063572 -0.217244  0.974045
			 0.203763 -0.347160  0.915402
			 0.183502 -0.629036  0.755407
			-0.794812 -0.062563 -0.603622
			-0.890872 -0.348969 -0.290806
			-0.585233  0.125520 -0.801091
			-0.505312 -0.776963  0.375485
			-0.878866 -0.458178 -0.132918
			-0.247998  0.129918 -0.960009
			 0.166700  0.236272 -0.957281
			 0.550328  0.264670 -0.791889
			 0.784087  0.240016 -0.572363
			 0.944458  0.203728 -0.257862
			 0.945881  0.032940  0.322837
			 0.468222 -0.050747  0.882153
			 0.057026 -0.088050  0.994482
			 0.152868 -0.170924  0.973353
			 0.390890 -0.398365  0.829765
			 0.312019 -0.679303  0.664223
			-0.255198 -0.877671  0.405669
			-0.666848 -0.034790 -0.744381
			-0.843810 -0.179926 -0.505580
			-0.416342  0.055031 -0.907541
			-0.789141 -0.610101 -0.070944
			-0.872542 -0.276018 -0.403093
			-0.139069  0.175132 -0.974674
			 0.265991  0.272765 -0.924580
			 0.610849  0.296030 -0.734322
			 0.860668  0.199546 -0.468436
			 0.982824  0.170482  0.070665
			 0.031657 -0.009593  0.999453
			 0.431524  0.230761  0.872087
			 0.158951 -0.092669  0.982928
			 0.423504 -0.211039  0.880969
			 0.528928 -0.451715  0.718463
			 0.258951 -0.773863  0.577998
			-0.154482 -0.910845  0.382750
			-0.717455 -0.694510 -0.053988
			-0.741064 -0.109884 -0.662382
			-0.514661 -0.004750 -0.857381
			-0.325250  0.127687 -0.936968
			-0.883307 -0.306782 -0.354475
			-0.788501 -0.107969 -0.605482
			-0.049878  0.266884 -0.962437
			 0.308333  0.374163 -0.874604
			 0.660605  0.257484 -0.705197
			 0.820288  0.221857 -0.527169
			 0.905394  0.302848  0.297564
			 0.895929  0.237393 -0.375442
			 0.213277 -0.144675  0.966221
			 0.155501  0.173058  0.972559
			 0.847209  0.275169  0.454443
			 0.504047 -0.261302  0.823200
			 0.467164 -0.595437  0.653614
			-0.118880 -0.902619  0.413699
			-0.732551 -0.678888 -0.049802
			-0.890753 -0.301600 -0.339994
			-0.578846 -0.019978 -0.815192
			-0.362941  0.117044 -0.924432
			-0.077323  0.292433 -0.953155
			-0.846111 -0.116264 -0.520173
			-0.671280 -0.049015 -0.739582
			 0.347266  0.346342 -0.871466
			 0.653329  0.299509 -0.695310
			 0.709328  0.232073 -0.665579
			 0.930810  0.087135 -0.354966
			 0.469045 -0.196252  0.861093
			 0.219194  0.011354  0.975615
			 0.725764  0.061800  0.685163
			 0.633418 -0.355982  0.687065
			 0.441441 -0.604487  0.663118
			-0.828405 -0.555072 -0.075104
			-0.238368 -0.853314  0.463720
			-0.904008 -0.245590 -0.349935
			-0.820621 -0.099750 -0.562700
			-0.428352  0.144125 -0.892044
			-0.030524  0.288548 -0.956979
			-0.571296  0.155733 -0.805834
			 0.387997  0.369466 -0.844366
			 0.580345  0.278961 -0.765101
			 0.921912  0.149842 -0.357248
			 0.648531 -0.151342  0.745992
			 0.340890  0.092161  0.935575
			 0.185818  0.112242  0.976152
			 0.774349  0.285503  0.564686
			 0.564675 -0.489675  0.664349
			-0.935459 -0.121981 -0.331720
			-0.877696 -0.466253 -0.110713
			-0.277132 -0.866010  0.416203
			-0.862278 -0.034961 -0.505226
			-0.645772  0.154364 -0.747763
			-0.151525  0.287088 -0.945844
			 0.238140  0.381441 -0.893192
			-0.222080  0.288540 -0.931357
			 0.439784  0.331307 -0.834761
			 0.760513  0.346115 -0.549385
			 0.735769 -0.145888  0.661333
			 0.532524  0.100009  0.840486
			 0.711397  0.043315  0.701454
			 0.230213  0.200834  0.952191
			 0.169649  0.172805  0.970236
			 0.842553  0.506865  0.182188
			 0.562555 -0.508138  0.652172
			-0.896143 -0.104253 -0.431346
			-0.916996 -0.310055 -0.250968
			-0.368177 -0.873150  0.319461
			-0.751775  0.116761 -0.649000
			-0.381047  0.292898 -0.876934
			 0.170513  0.353299 -0.919840
			 0.043893  0.338555 -0.939922
			 0.603065  0.400828 -0.689674
			 0.319102  0.364940 -0.874638
			 0.745669 -0.207351  0.633233
			 0.714214  0.134401  0.686902
			 0.455498  0.299276  0.838424
			 0.101547  0.216964  0.970884
			 0.238865  0.279206  0.930047
			 0.709780  0.564984  0.420720
			 0.638701 -0.320988  0.699305
			 0.429255 -0.569530  0.700982
			-0.685944  0.053963 -0.725650
			-0.862430 -0.340942 -0.374131
			-0.821674 -0.251967 -0.511238
			-0.841753 -0.450006 -0.298241
			-0.350949 -0.860345  0.369650
			-0.257997  0.198080 -0.945622
			 0.165723  0.305598 -0.937628
			 0.391889  0.344186 -0.853205
			 0.663468  0.423742 -0.616646
			 0.676420 -0.154827  0.720058
			 0.824004 -0.099212  0.557831
			 0.752367  0.118320  0.648031
			 0.514152  0.259231  0.817586
			 0.704390  0.695998  0.139360
			 0.098603  0.244924  0.964515
			 0.266193  0.279097  0.922630
			 0.466135 -0.353512  0.811017
			-0.544343  0.118969 -0.830384
			-0.749210  0.030116 -0.661648
			-0.817237 -0.425588 -0.388585
			-0.853239 -0.235131 -0.465506
			-0.776230 -0.586582 -0.231061
			-0.305229 -0.785771  0.537958
			-0.347289  0.158021 -0.924348
			 0.038862  0.252150 -0.966908
			 0.381149  0.264860 -0.885762
			 0.648496 -0.131774  0.749726
			 0.815896 -0.149652  0.558496
			 0.900290 -0.067332  0.430051
			 0.803038  0.064606  0.592415
			 0.556375  0.213714  0.802978
			 0.535357  0.766189 -0.355453
			 0.171228  0.589196  0.789639
			 0.233838  0.251272  0.939246
			 0.408412 -0.271619  0.871449
			-0.691403  0.147852 -0.707179
			-0.509787  0.141099 -0.848651
			-0.854622  0.029989 -0.518384
			-0.886599 -0.232680 -0.399752
			-0.859307 -0.476234 -0.186529
			-0.374467 -0.613184  0.695543
			-0.172171  0.221056 -0.959943
			 0.197649  0.272946 -0.941507
			 0.393019  0.469563 -0.790599
			 0.679723 -0.123607  0.722978
			 0.522482 -0.102607  0.846454
			 0.862163 -0.025672  0.505980
			 0.898021  0.090890  0.430461
			 0.762169  0.164712  0.626074
			 0.468005  0.246709  0.848591
			 0.345875  0.938005 -0.022761
			 0.191827  0.599209  0.777272
			-0.829589  0.111963 -0.547034
			-0.654628  0.148317 -0.741259
			-0.357884  0.152517 -0.921226
			-0.914221 -0.021875 -0.404625
			-0.929688 -0.285258 -0.233043
			-0.350174 -0.546010  0.761085
			 0.088890  0.270447 -0.958623
			 0.335792  0.502983 -0.796399
			 0.562723 -0.090650  0.821660
			 0.714501  0.012998  0.699514
			 0.519411 -0.042488  0.853468
			 0.877306  0.142081  0.458418
			 0.881124  0.191956  0.432173
			 0.707433  0.269674  0.653310
			 0.361797  0.660725  0.657681
			 0.381385  0.867861 -0.318376
			-0.864160  0.082977 -0.496329
			-0.744378  0.161122 -0.648028
			-0.545965  0.093310 -0.832596
			-0.216157  0.202098 -0.955213
			-0.882422 -0.162120 -0.441643
			-0.875658 -0.392895 -0.280815
			-0.490682 -0.504667  0.710311
			 0.170992  0.436201 -0.883454
			 0.571832 -0.038784  0.819454
			 0.417755 -0.103393  0.902658
			 0.852621  0.151600  0.500054
			 0.704604  0.076590  0.705455
			 0.855334  0.200489  0.477710
			 0.615763  0.572913  0.540930
			 0.449058  0.892356 -0.045245
			-0.799228  0.171819 -0.575946
			-0.860627 -0.068140 -0.504657
			-0.638826  0.095469 -0.763405
			-0.253995  0.223945 -0.940922
			 0.149950  0.576785 -0.803016
			-0.889262 -0.300175 -0.345119
			-0.685012 -0.419422  0.595688
			 0.518685 -0.012797  0.854869
			 0.644392  0.094542  0.758829
			-0.071042 -0.243250  0.967359
			 0.825139  0.180602  0.535283
			 0.816015  0.407799  0.409657
			 0.522220  0.820782 -0.231525
			-0.825567  0.101726 -0.555060
			-0.757612  0.096451 -0.645539
			-0.870353 -0.099574 -0.482256
			-0.556345  0.078243 -0.827259
			-0.058844  0.474275 -0.878408
			-0.948163 -0.308647 -0.075661
			 0.505708 -0.024604  0.862354
			 0.594132  0.092648  0.799014
			 0.748804  0.213437  0.627485
			-0.865518 -0.294879  0.404876
			-0.046792 -0.184846  0.981653
			 0.846085  0.322860  0.424148
			 0.786129  0.558477  0.264774
			 0.440783  0.806248 -0.394556
			-0.778521  0.023551 -0.627176
			-0.812497 -0.060093 -0.579860
			-0.675584  0.063409 -0.734551
			-0.898990 -0.161745 -0.407007
			-0.210927  0.459446 -0.862797
			 0.563270 -0.000360  0.826273
			 0.517384 -0.079152  0.852085
			 0.149453 -0.111877  0.982419
			 0.701341  0.171131  0.691979
			 0.805285  0.337874  0.487194
			-0.920905 -0.164606  0.353326
			 0.829694  0.490769  0.265997
			 0.490799  0.812619 -0.314271
			-0.776609  0.012975 -0.629849
			-0.729935  0.144800 -0.668003
			-0.823961 -0.115136 -0.554826
			-0.374932  0.453298 -0.808670
			-0.925152 -0.097805 -0.366781
			 0.591056  0.109783  0.799125
			 0.376690 -0.022327  0.926070
			-0.575202 -0.095518  0.812415
			 0.727439  0.262292  0.634062
			 0.807154  0.532900  0.254008
			 0.790521  0.406335  0.458224
			-0.979034 -0.128826 -0.157784
			 0.630294  0.774203 -0.057780
			-0.337695  0.657813 -0.673234
			-0.795448  0.059298 -0.603114
			-0.778413  0.174257 -0.603081
			-0.861219 -0.125377 -0.492526
			 0.508677  0.137321  0.849936
			 0.634494  0.254416  0.729856
			-0.705471 -0.185272  0.684094
			 0.317649  0.061091  0.946238
			 0.743915  0.426378  0.514579
			 0.350941  0.884131 -0.308469
			 0.707387  0.702057  0.081977
			 0.732210  0.588374  0.343052
			-0.955043 -0.232798 -0.183571
			-0.855077 -0.059258 -0.515104
			-0.654514  0.321989 -0.684057
			-0.781286  0.135380 -0.609314
			-0.777543  0.091647 -0.622115
			 0.090116  0.727643  0.680011
			 0.131625  0.767007  0.627993
			 0.223272  0.859845  0.459148
			-0.895858  0.434157  0.094583
			-0.404874  0.247526  0.880232
			-0.039216  0.684860  0.727619
			 0.354296  0.869858  0.343253
			-0.282619  0.815342 -0.505315
			 0.167722  0.975138  0.144827
			-0.828424  0.527065 -0.189514
			-0.718753  0.630234 -0.293597
			-0.681243  0.695728 -0.227753
			-0.722164  0.624009 -0.298482
		</DataArray>
	</PointData>
	<Points>
		<DataArray type="Float32" NumberOfComponents="3" format="ascii">
			-0.032116 -0.090457 -0.157063
			-0.037949 -0.085943 -0.159254
			-0.040865 -0.093927 -0.157842
			-0.040821 -0.093573 -0.159922
			-0.031402 -0.089732 -0.159747
			-0.024684 -0.088258 -0.151740
			-0.029770 -0.083038 -0.156419
			-0.023525 -0.087184 -0.155460
			-0.036632 -0.085455 -0.158923
			-0.030835 -0.083308 -0.157461
			-0.043448 -0.088421 -0.157893
			-0.040126 -0.080420 -0.158378
			-0.043102 -0.081616 -0.158548
			-0.044843 -0.095504 -0.158196
			-0.044090 -0.088303 -0.160272
			-0.038217 -0.085780 -0.160954
			-0.036257 -0.084938 -0.161182
			-0.030409 -0.082844 -0.159262
			-0.028020 -0.081989 -0.158477
			-0.020233 -0.088070 -0.141535
			-0.024348 -0.081664 -0.151103
			-0.018857 -0.086101 -0.150263
			-0.029574 -0.076716 -0.154454
			-0.035212 -0.078446 -0.158100
			-0.022542 -0.080566 -0.153324
			-0.053025 -0.092736 -0.155526
			-0.048226 -0.083964 -0.157036
			-0.037476 -0.073204 -0.155700
			-0.043148 -0.075660 -0.154919
			-0.049138 -0.083865 -0.159979
			-0.043604 -0.081435 -0.160950
			-0.040148 -0.079918 -0.161557
			-0.034826 -0.077982 -0.159998
			-0.032963 -0.077304 -0.159451
			-0.028459 -0.075899 -0.156676
			-0.015968 -0.086390 -0.141085
			-0.017354 -0.087137 -0.139978
			-0.021445 -0.082211 -0.140281
			-0.024852 -0.076007 -0.146791
			-0.020354 -0.079997 -0.151267
			-0.015890 -0.079710 -0.141644
			-0.031654 -0.071319 -0.152540
			-0.022972 -0.074189 -0.153296
			-0.057196 -0.088075 -0.154392
			-0.054882 -0.080740 -0.153305
			-0.037616 -0.067761 -0.149125
			-0.051759 -0.073025 -0.152522
			-0.044069 -0.075196 -0.160155
			-0.055691 -0.080334 -0.157905
			-0.037223 -0.072546 -0.159144
			-0.034361 -0.071438 -0.158721
			-0.030060 -0.070019 -0.156555
			-0.015874 -0.081291 -0.131770
			-0.017920 -0.082128 -0.131793
			-0.020144 -0.082458 -0.135430
			-0.019930 -0.076777 -0.129421
			-0.024774 -0.070376 -0.140823
			-0.016966 -0.073154 -0.144382
			-0.014352 -0.073367 -0.136375
			-0.030001 -0.065478 -0.143856
			-0.018076 -0.066717 -0.146464
			-0.022624 -0.067566 -0.152808
			-0.061120 -0.083441 -0.152447
			-0.061770 -0.077428 -0.150729
			-0.036726 -0.062020 -0.141764
			-0.046867 -0.065386 -0.146741
			-0.062414 -0.071861 -0.146202
			-0.050909 -0.066949 -0.147356
			-0.052326 -0.072461 -0.157483
			-0.036642 -0.065848 -0.158527
			-0.062912 -0.077362 -0.154054
			-0.056511 -0.074225 -0.157205
			-0.023856 -0.061489 -0.152963
			-0.014417 -0.074926 -0.126849
			-0.016269 -0.075787 -0.126225
			-0.020211 -0.070783 -0.126630
			-0.017895 -0.063851 -0.123033
			-0.013199 -0.067177 -0.131136
			-0.026414 -0.059698 -0.129854
			-0.019518 -0.060473 -0.148197
			-0.066014 -0.079496 -0.148704
			-0.063955 -0.078079 -0.152256
			-0.039367 -0.057426 -0.136296
			-0.051701 -0.062094 -0.138782
			-0.071098 -0.076007 -0.142608
			-0.055547 -0.063690 -0.138687
			-0.069566 -0.070235 -0.133804
			-0.052933 -0.066361 -0.156181
			-0.036515 -0.059371 -0.157700
			-0.065655 -0.072156 -0.152654
			-0.026049 -0.055938 -0.152304
			-0.015011 -0.069288 -0.122643
			-0.012657 -0.068260 -0.123019
			-0.012401 -0.061938 -0.120890
			-0.017785 -0.057094 -0.123992
			-0.011517 -0.061296 -0.122626
			-0.019498 -0.050981 -0.125600
			-0.019568 -0.054410 -0.145248
			-0.069396 -0.074331 -0.148684
			-0.018611 -0.044012 -0.125888
			-0.051011 -0.056011 -0.134067
			-0.058426 -0.058808 -0.135621
			-0.073537 -0.070625 -0.141526
			-0.073836 -0.071685 -0.135696
			-0.067821 -0.063189 -0.132374
			-0.074924 -0.066692 -0.128744
			-0.066956 -0.066267 -0.151816
			-0.042661 -0.055333 -0.157735
			-0.035685 -0.052691 -0.156334
			-0.070660 -0.068252 -0.148933
			-0.026917 -0.049969 -0.150862
			-0.012777 -0.055197 -0.122997
			-0.012455 -0.054877 -0.124162
			-0.013145 -0.048503 -0.124781
			-0.019402 -0.048453 -0.141087
			-0.014676 -0.042294 -0.126517
			-0.018955 -0.037705 -0.125207
			-0.028516 -0.041848 -0.123873
			-0.048788 -0.049719 -0.126732
			-0.068442 -0.057938 -0.125834
			-0.076906 -0.066269 -0.136444
			-0.072708 -0.062933 -0.146461
			-0.077121 -0.067405 -0.129924
			-0.077360 -0.061810 -0.124547
			-0.079597 -0.062420 -0.126471
			-0.068265 -0.060443 -0.150591
			-0.042941 -0.048957 -0.157318
			-0.033804 -0.045638 -0.154607
			-0.026730 -0.043773 -0.148132
			-0.013178 -0.047994 -0.128032
			-0.015287 -0.041898 -0.130549
			-0.016171 -0.036188 -0.127529
			-0.020436 -0.031916 -0.124211
			-0.037314 -0.038991 -0.123336
			-0.049890 -0.044042 -0.124061
			-0.078890 -0.056809 -0.118768
			-0.075250 -0.057995 -0.142880
			-0.079396 -0.060925 -0.135248
			-0.068911 -0.054538 -0.148182
			-0.081742 -0.057693 -0.120562
			-0.083169 -0.057180 -0.127396
			-0.048634 -0.044948 -0.156013
			-0.040032 -0.041476 -0.155618
			-0.031155 -0.038594 -0.150866
			-0.022930 -0.036778 -0.141135
			-0.016205 -0.035914 -0.129321
			-0.016970 -0.030189 -0.126093
			-0.018716 -0.024766 -0.123499
			-0.031053 -0.030018 -0.122358
			-0.049011 -0.037395 -0.122369
			-0.064012 -0.043818 -0.120752
			-0.083284 -0.052796 -0.114171
			-0.084947 -0.053373 -0.114833
			-0.074263 -0.050910 -0.143635
			-0.081045 -0.055142 -0.134643
			-0.063814 -0.045517 -0.150477
			-0.086051 -0.053001 -0.119963
			-0.084475 -0.050646 -0.130579
			-0.048051 -0.038304 -0.155057
			-0.039493 -0.035030 -0.153550
			-0.031025 -0.032369 -0.148455
			-0.018278 -0.030026 -0.130447
			-0.017400 -0.023882 -0.125630
			-0.031492 -0.023743 -0.121723
			-0.020828 -0.019196 -0.122748
			-0.046838 -0.029773 -0.123431
			-0.065486 -0.038507 -0.116771
			-0.079393 -0.045379 -0.109565
			-0.087386 -0.049016 -0.107368
			-0.089102 -0.049636 -0.107906
			-0.090528 -0.049584 -0.111871
			-0.079723 -0.047390 -0.138696
			-0.071016 -0.042485 -0.146948
			-0.059450 -0.037067 -0.151091
			-0.088796 -0.046943 -0.123868
			-0.082644 -0.042447 -0.136119
			-0.047827 -0.031828 -0.153980
			-0.038913 -0.028598 -0.151278
			-0.027882 -0.025415 -0.142885
			-0.021701 -0.024265 -0.134246
			-0.018758 -0.017982 -0.125008
			-0.019226 -0.017848 -0.127043
			-0.045524 -0.022958 -0.121679
			-0.025606 -0.014400 -0.124000
			-0.021152 -0.012231 -0.126110
			-0.065499 -0.032048 -0.116183
			-0.090710 -0.044940 -0.100429
			-0.093234 -0.046005 -0.100250
			-0.094493 -0.045909 -0.104071
			-0.092647 -0.043263 -0.115810
			-0.073154 -0.037062 -0.145354
			-0.067184 -0.034125 -0.148368
			-0.050700 -0.026795 -0.151826
			-0.085789 -0.037896 -0.131672
			-0.077705 -0.032827 -0.142531
			-0.037408 -0.021998 -0.147698
			-0.029049 -0.019565 -0.141463
			-0.026141 -0.012668 -0.136145
			-0.021373 -0.011858 -0.128998
			-0.061394 -0.023947 -0.115291
			-0.033626 -0.011258 -0.123254
			-0.020435 -0.005391 -0.126030
			-0.087247 -0.037194 -0.098962
			-0.095706 -0.041530 -0.093620
			-0.098564 -0.041997 -0.098017
			-0.097541 -0.042283 -0.093626
			-0.095558 -0.038344 -0.113055
			-0.087164 -0.031857 -0.131951
			-0.072991 -0.030463 -0.145193
			-0.051457 -0.020771 -0.150435
			-0.079911 -0.027494 -0.140552
			-0.037867 -0.016010 -0.145322
			-0.028191 -0.006992 -0.135895
			-0.020505 -0.005032 -0.128441
			-0.071836 -0.022868 -0.107894
			-0.055175 -0.014475 -0.117526
			-0.028793 -0.002473 -0.124751
			-0.022054  0.000593 -0.126595
			-0.096241 -0.035970 -0.088774
			-0.096751 -0.032446 -0.112003
			-0.101367 -0.037341 -0.093350
			-0.101092 -0.038214 -0.087214
			-0.089434 -0.026799 -0.128422
			-0.082147 -0.022385 -0.137256
			-0.056075 -0.016422 -0.148503
			-0.045274 -0.012401 -0.145911
			-0.057924 -0.010918 -0.146677
			-0.032201 -0.001999 -0.136407
			-0.022323  0.000697 -0.127930
			-0.079600 -0.021142 -0.097687
			-0.064242 -0.012265 -0.113645
			-0.073022 -0.017139 -0.105769
			-0.047652 -0.004085 -0.122131
			-0.029310  0.003902 -0.124928
			-0.024476  0.006179 -0.126741
			-0.102195 -0.033012 -0.081594
			-0.093139 -0.022992 -0.120782
			-0.104378 -0.032919 -0.087754
			-0.105005 -0.034237 -0.081163
			-0.087647 -0.019040 -0.131324
			-0.061964 -0.006416 -0.144209
			-0.050557 -0.008106 -0.145336
			-0.054740 -0.003501 -0.143877
			-0.026541  0.005792 -0.129609
			-0.038407  0.002197 -0.137575
			-0.086407 -0.018670 -0.089663
			-0.074686 -0.011281 -0.105673
			-0.064372 -0.005604 -0.114621
			-0.036438  0.007623 -0.125507
			-0.052649  0.000408 -0.122057
			-0.028429  0.011189 -0.127213
			-0.100778 -0.026409 -0.078261
			-0.107160 -0.029627 -0.074547
			-0.089876 -0.013930 -0.128017
			-0.102866 -0.024342 -0.096446
			-0.095917 -0.017912 -0.118687
			-0.108100 -0.029186 -0.079699
			-0.108841 -0.030308 -0.074610
			-0.061472  0.000063 -0.142466
			-0.054667  0.002780 -0.141972
			-0.038700  0.008206 -0.134912
			-0.028937  0.011176 -0.128430
			-0.092388 -0.015733 -0.082420
			-0.083214 -0.010425 -0.092000
			-0.073802 -0.003756 -0.109426
			-0.065536  0.000888 -0.117186
			-0.031840  0.016468 -0.127974
			-0.039712  0.012957 -0.126256
			-0.056120  0.005639 -0.122676
			-0.111442 -0.025559 -0.070001
			-0.082365 -0.003711 -0.131589
			-0.093753 -0.009654 -0.123730
			-0.108141 -0.021139 -0.089061
			-0.099828 -0.013563 -0.114947
			-0.113249 -0.025795 -0.073153
			-0.113075 -0.026249 -0.069881
			-0.064944  0.004884 -0.140526
			-0.058486  0.007593 -0.140871
			-0.041734  0.013454 -0.134514
			-0.092990 -0.009666 -0.080911
			-0.082969 -0.004109 -0.089866
			-0.076103  0.001023 -0.104233
			-0.072972  0.003185 -0.109684
			-0.065371  0.007853 -0.119296
			-0.037900  0.020853 -0.129951
			-0.038748  0.020263 -0.128448
			-0.056392  0.012428 -0.124805
			-0.114262 -0.020716 -0.066544
			-0.092054 -0.002371 -0.123900
			-0.072323  0.007665 -0.135892
			-0.099465 -0.006783 -0.115400
			-0.109342 -0.014431 -0.093068
			-0.117297 -0.021467 -0.069629
			-0.116800 -0.021818 -0.066175
			-0.063533  0.011865 -0.139550
			-0.054601  0.015332 -0.138292
			-0.040954  0.019992 -0.132396
			-0.088651 -0.000974 -0.083097
			-0.117539 -0.015844 -0.064432
			-0.081027  0.003581 -0.091939
			-0.075768  0.007876 -0.105221
			-0.070736  0.011519 -0.115021
			-0.061575  0.016618 -0.123319
			-0.047287  0.023776 -0.131330
			-0.050150  0.022101 -0.128224
			-0.101237 -0.001565 -0.111583
			-0.090764  0.004758 -0.124152
			-0.066975  0.016708 -0.137681
			-0.110305 -0.008064 -0.094336
			-0.119386 -0.016109 -0.067503
			-0.119388 -0.016795 -0.063238
			-0.058026  0.020312 -0.137230
			-0.049810  0.023190 -0.134132
			-0.098266  0.000355 -0.075144
			-0.088657  0.005401 -0.081971
			-0.120854 -0.010989 -0.062308
			-0.080633  0.010517 -0.093285
			-0.076844  0.014126 -0.106046
			-0.071979  0.017637 -0.115456
			-0.057944  0.025724 -0.129893
			-0.055320  0.027460 -0.133981
			-0.102421  0.004005 -0.108470
			-0.094238  0.008989 -0.118553
			-0.075538  0.018897 -0.132389
			-0.068002  0.022640 -0.136412
			-0.113650 -0.004562 -0.083881
			-0.122285 -0.011149 -0.064969
			-0.122635 -0.011884 -0.061296
			-0.061017  0.025505 -0.136385
			-0.099344  0.006311 -0.074151
			-0.123451 -0.005840 -0.060185
			-0.082869  0.015894 -0.091655
			-0.090774  0.010856 -0.080523
			-0.074162  0.023056 -0.113951
			-0.067251  0.027769 -0.125608
			-0.063958  0.030361 -0.133312
			-0.098563  0.012608 -0.111330
			-0.111614  0.004259 -0.092752
			-0.081957  0.022191 -0.128497
			-0.070028  0.028078 -0.134621
			-0.064502  0.030261 -0.134080
			-0.124730 -0.005677 -0.064465
			-0.125225 -0.006590 -0.060056
			-0.106446  0.009140 -0.069105
			-0.095353  0.014937 -0.076817
			-0.126581 -0.000829 -0.058559
			-0.085391  0.020983 -0.088960
			-0.074111  0.030290 -0.118025
			-0.070772  0.033863 -0.131715
			-0.105837  0.014452 -0.100591
			-0.090973  0.023339 -0.117884
			-0.120992  0.004169 -0.075368
			-0.077724  0.030846 -0.130722
			-0.072712  0.033233 -0.132758
			-0.127395 -0.000918 -0.060087
			-0.124159  0.006856 -0.059381
			-0.101024  0.018558 -0.073036
			-0.088689  0.025792 -0.086514
			-0.129108  0.004613 -0.058076
			-0.127718  0.005056 -0.057280
			-0.083031  0.029805 -0.097015
			-0.076835  0.036119 -0.120453
			-0.076062  0.037763 -0.128707
			-0.096901  0.026168 -0.109837
			-0.112438  0.016649 -0.090331
			-0.084737  0.033620 -0.125109
			-0.127385  0.006463 -0.065184
			-0.077696  0.037239 -0.129614
			-0.108870  0.021048 -0.067784
			-0.124529  0.013202 -0.059003
			-0.129132  0.010896 -0.056423
			-0.094264  0.029165 -0.080949
			-0.087529  0.033698 -0.091933
			-0.130052  0.010599 -0.056931
			-0.081387  0.039332 -0.111278
			-0.080346  0.042097 -0.125816
			-0.100708  0.030620 -0.106474
			-0.086185  0.039239 -0.122959
			-0.122286  0.017044 -0.077171
			-0.081284  0.041783 -0.126259
			-0.127951  0.012831 -0.065439
			-0.107047  0.028595 -0.069286
			-0.128041  0.017834 -0.055997
			-0.129833  0.017071 -0.055833
			-0.096989  0.034440 -0.079933
			-0.085173  0.043702 -0.107349
			-0.089349  0.039745 -0.093406
			-0.130300  0.017468 -0.059503
			-0.084487  0.045916 -0.119367
			-0.085642  0.045678 -0.120837
			-0.113495  0.029322 -0.090289
			-0.091719  0.042110 -0.114170
			-0.124771  0.022090 -0.074113
			-0.121326  0.027972 -0.061103
			-0.104910  0.036547 -0.072490
			-0.130743  0.023228 -0.055662
			-0.128990  0.023968 -0.055789
			-0.095730  0.042438 -0.085675
			-0.089240  0.049795 -0.114853
			-0.088963  0.048857 -0.108303
			-0.090075  0.047373 -0.101913
			-0.131173  0.023799 -0.060315
			-0.127800  0.026937 -0.071217
			-0.090316  0.049323 -0.114658
			-0.106286  0.039786 -0.096150
			-0.096129  0.045852 -0.107921
			-0.126074  0.032242 -0.059008
			-0.108725  0.041294 -0.070977
			-0.099531  0.047194 -0.084177
			-0.133197  0.029228 -0.058461
			-0.132340  0.029101 -0.055489
			-0.130868  0.029740 -0.055701
			-0.096022  0.050406 -0.095182
			-0.094599  0.053190 -0.108867
			-0.093778  0.053233 -0.107041
			-0.130872  0.031481 -0.066537
			-0.118666  0.038786 -0.080781
			-0.101607  0.048996 -0.100690
			-0.095072  0.052907 -0.108316
		</DataArray>
	</Points>
			<Polys>
				<DataArray type="Int32" Name="connectivity" format="ascii">
					0 1 2 
					3 0 2 
					3 4 0 
					5 6 0 
					7 5 0 
					4 7 0 
					8 1 0 
					6 9 0 
					9 8 0 
					1 10 2 
					8 11 1 
					1 12 10 
					11 12 1 
					2 10 13 
					13 3 2 
					3 14 15 
					15 4 3 
					3 13 14 
					4 16 17 
					4 15 16 
					4 17 18 
					18 7 4 
					19 20 5 
					21 19 5 
					7 21 5 
					20 6 5 
					20 22 6 
					22 23 6 
					9 6 23 
					7 18 24 
					21 7 24 
					9 23 8 
					8 23 11 
					10 25 13 
					10 26 25 
					10 12 26 
					27 28 11 
					11 23 27 
					28 12 11 
					28 26 12 
					13 25 14 
					29 30 14 
					30 15 14 
					29 14 25 
					15 30 31 
					16 15 31 
					31 32 16 
					17 16 32 
					33 18 17 
					32 33 17 
					33 34 18 
					34 24 18 
					21 35 19 
					36 37 19 
					35 36 19 
					37 20 19 
					37 38 20 
					38 22 20 
					24 39 21 
					21 39 40 
					40 35 21 
					38 41 22 