<?xml version="1.0"?>
<VTKFile type="PolyData" version="0.1" byte_order="LittleEndian" compressor="vtkZLibDataCompressor">
	<PolyData>
		<Piece NumberOfPoints="673" NumberOfVerts="0" NumberOfLines="0" NumberOfStrips="0" NumberOfPolys="1344">
		<PointData Normals="Normals">
		<DataArray type="Float32" Name="Normals" NumberOfComponents="3" format="ascii">
			-0.775237 -0.396356  0.491844
			-0.415616 -0.316562  0.852673
			-0.734975 -0.300007 -0.608118
			 0.730420  0.667740 -0.143559
			-0.871700 -0.243726 -0.425132
			-0.463865 -0.269653  0.843870
			-0.462954 -0.180347  0.867841
			-0.202658 -0.022591 -0.978989
			 0.406617 -0.897617 -0.170138
			-0.298879 -0.203721  0.932292
			 0.032586 -0.150727  0.988038
			-0.256704 -0.314233  0.913981
			-0.855014 -0.506795  0.110042
			-0.224605  0.058348 -0.972702
			-0.116410 -0.350553 -0.929280
			-0.250359 -0.081386  0.964726
			-0.754903 -0.299639 -0.583385
			-0.179719 -0.099731 -0.978649
			-0.408352 -0.146009  0.901072
			-0.296090 -0.004160 -0.955151
			-0.505104 -0.242509  0.828287
			-0.243890 -0.156651 -0.957068
			-0.161328  0.061910 -0.984957
			 0.009677 -0.073831  0.997224
			 0.085877  0.129781  0.987817
			 0.594857  0.087805  0.799021
			 0.162242 -0.099665  0.981705
			-0.194182 -0.351293  0.915907
			-0.811601 -0.579166  0.076618
			-0.291221  0.067210 -0.954292
			 0.214988  0.227718 -0.949697
			-0.168283  0.044221 -0.984746
			 0.221306  0.075598  0.972270
			 0.342968  0.113423  0.932474
			-0.207662 -0.057442 -0.976513
			-0.973886 -0.226802  0.010359
			-0.069575  0.009012 -0.997536
			 0.144510  0.023676 -0.989220
			-0.088395 -0.112968 -0.989659
			-0.313934 -0.021815  0.949194
			-0.174780  0.004781 -0.984596
			-0.172478  0.045655 -0.983955
			 0.388589  0.274588 -0.879546
			 0.293893  0.269352 -0.917102
			 0.102564  0.099604 -0.989727
			 0.534587  0.331715  0.777291
			 0.033986  0.463338  0.885530
			 0.730894  0.459850  0.504313
			 0.900184  0.360966 -0.243666
			 0.709045  0.185752  0.680258
			 0.247313 -0.072932  0.966187
			 0.022932 -0.184562  0.982553
			-0.376347 -0.462351  0.802867
			-0.700806 -0.261817 -0.663568
			-0.310286 -0.055543 -0.949019
			 0.856692  0.458972 -0.235424
			 0.543657  0.391714 -0.742292
			-0.101268 -0.004924 -0.994847
			 0.819813  0.286859  0.495599
			 0.247633  0.139633  0.958739
			 0.911105  0.319050  0.260949
			 0.923548  0.315585  0.217864
			-0.114013 -0.071949 -0.990870
			-0.696692 -0.240197 -0.675963
			-0.575970 -0.099210  0.811428
			 0.561320  0.288919 -0.775529
			 0.421184  0.238485 -0.875059
			 0.797388  0.298200 -0.524641
			 0.500560  0.094840 -0.860491
			 0.433633  0.004996 -0.901076
			-0.034329  0.091528  0.995211
			-0.044316  0.119980 -0.991787
			-0.032492 -0.029226 -0.999045
			 0.614805  0.380500 -0.690822
			 0.504722  0.363845 -0.782862
			 0.598628  0.654387  0.461976
			 0.823840  0.546219 -0.151433
			 0.638259  0.378671 -0.670249
			 0.805771  0.342744  0.482970
			 0.428543  0.108294  0.897008
			-0.145087 -0.202526  0.968469
			 0.122737 -0.033160  0.991885
			-0.874420 -0.452858  0.174097
			-0.409418 -0.105648 -0.906210
			-0.282727 -0.124636 -0.951069
			 0.634942  0.389945 -0.666926
			 0.873513  0.473572  0.112713
			 0.427683  0.271412 -0.862220
			 0.506431  0.200370  0.838677
			 0.967093  0.253734 -0.018745
			-0.094761 -0.067540 -0.993206
			 0.073895 -0.092895 -0.992930
			-0.968892 -0.218149  0.116877
			-0.564993 -0.063646  0.822638
			-0.125148  0.050561  0.990849
			 0.651966  0.391608 -0.649294
			 0.678353  0.034872 -0.733908
			 0.409744  0.196816  0.890715
			 0.677567  0.293682  0.674280
			-0.200120 -0.091927  0.975449
			 0.214428  0.072616  0.974037
			-0.934855 -0.351711  0.048428
			-0.424511 -0.151158 -0.892716
			-0.431858 -0.187111 -0.882320
			 0.010011  0.031628 -0.999450
			 0.853356  0.496288 -0.159632
			 0.774703  0.418419 -0.474089
			 0.933426  0.220400  0.283088
			-0.553531 -0.115666 -0.824757
			 0.090890 -0.004562 -0.995850
			 0.784555  0.125517 -0.607222
			-0.731780 -0.105448  0.673334
			-0.200001 -0.007650  0.979766
			 0.377094  0.047359  0.924964
			 0.838104  0.151016  0.524191
			 0.867314  0.358300  0.345527
			-0.084404 -0.024103  0.996140
			-0.940886 -0.332949  0.062280
			 0.449035  0.177877  0.875630
			-0.446681 -0.238202 -0.862401
			-0.334969 -0.156191 -0.929193
			 0.420244  0.248193 -0.872809
			 0.929853  0.318438 -0.184309
			 0.015547 -0.012912 -0.999796
			-0.903777 -0.128146 -0.408370
			 0.554614  0.094225 -0.826756
			 0.920298  0.170102  0.352303
			-0.198366  0.016667  0.979986
			-0.703967 -0.105691  0.702325
			 0.366813  0.107619  0.924049
			-0.195978 -0.165109  0.966608
			 0.181798  0.024720  0.983025
			-0.924209 -0.287585  0.251261
			-0.557069 -0.181116 -0.810476
			 0.800897  0.207942  0.561538
			-0.420831 -0.116430 -0.899636
			 0.034933  0.158251 -0.986781
			 0.601915  0.218557 -0.768070
			 0.198165  0.025666 -0.979833
			-0.017297  0.045775 -0.998802
			-0.864389 -0.231128  0.446555
			-0.520714  0.003020 -0.853726
			 0.944370  0.120915 -0.305850
			 0.744286  0.120075  0.656979
			 0.236995  0.013369  0.971419
			-0.370466 -0.100164  0.923429
			 0.046013 -0.130033  0.990441
			-0.552184 -0.229186  0.801603
			 0.309939  0.012809  0.950670
			-0.923652 -0.218683 -0.314715
			-0.566199 -0.015514 -0.824123
			 0.986964  0.121989  0.104981
			-0.146275  0.125520 -0.981248
			 0.413025  0.099662 -0.905250
			 0.904575  0.113146 -0.411025
			 0.088362  0.004942 -0.996076
			 0.076046  0.079766 -0.993909
			-0.847748 -0.139872 -0.511624
			-0.754760 -0.217545  0.618879
			 0.804414  0.054567  0.591558
			 0.233173 -0.036008  0.971768
			-0.263077 -0.116086  0.957765
			-0.362308 -0.199008  0.910565
			 0.182928 -0.127731  0.974793
			-0.992002 -0.106948 -0.067037
			 0.548018 -0.027311  0.836021
			-0.541195  0.140971 -0.828997
			 0.875627  0.141424 -0.461819
			-0.446580  0.133751 -0.884690
			 0.065859  0.163679 -0.984313
			 0.745488  0.102417 -0.658603
			 0.124073  0.209599 -0.969883
			-0.838283 -0.299772  0.455433
			-0.724165 -0.077222 -0.685290
			-0.355685 -0.252592  0.899825
			 0.819788  0.018883  0.572357
			 0.301391 -0.137590  0.943521
			-0.385124 -0.184150  0.904306
			-0.951071 -0.011846 -0.308745
			 0.193162 -0.146147  0.970221
			 0.734441  0.017628  0.678444
			 0.880802  0.159233 -0.445907
			-0.155398  0.093678 -0.983400
			 0.927178 -0.048017  0.371532
			 0.659192  0.103828 -0.744772
			 0.114923  0.223194 -0.967976
			-0.374134 -0.330877  0.866340
			-0.828466 -0.341103  0.444176
			-0.814516 -0.219472 -0.537024
			 0.309570 -0.210952  0.927181
			-0.408210 -0.127189  0.903984
			-0.979843 -0.049105  0.193638
			-0.677289  0.013477 -0.735593
			 0.153301 -0.061463  0.986266
			 0.685702  0.037222  0.726930
			 0.133901  0.123988 -0.983208
			 0.979099  0.171764 -0.108915
			-0.326295  0.054476 -0.943697
			 0.940042 -0.131646  0.314627
			 0.678335  0.182032 -0.711847
			-0.455726 -0.071306 -0.887259
			 0.132774  0.204518 -0.969816
			-0.369858 -0.296893  0.880375
			 0.317924 -0.217062  0.922935
			-0.885948 -0.367261  0.283224
			-0.909079 -0.015705  0.416327
			-0.761586 -0.047941 -0.646289
			-0.285445 -0.015744  0.958266
			 0.351658  0.004418  0.936118
			 0.801900  0.114877  0.586310
			-0.264277  0.007498 -0.964418
			 0.585736  0.172537 -0.791924
			 0.944518 -0.006513  0.328394
			 0.570260  0.232029 -0.788014
			-0.462695 -0.165350 -0.870961
			-0.817745 -0.308091  0.486182
			-0.198639 -0.265969  0.943294
			 0.311075 -0.165823  0.935807
			-0.970798 -0.106864  0.214784
			-0.784900 -0.114539 -0.608944
			-0.375586 -0.066809  0.924376
			 0.127289 -0.013264  0.991777
			 0.609895  0.120995  0.783191
			 0.903466  0.227494 -0.363313
			-0.207214 -0.021200 -0.978066
			 0.969691  0.170302  0.175207
			 0.508912 -0.169410  0.843984
			 0.012074  0.085584 -0.996258
			 0.507907  0.370039 -0.777883
			-0.591070 -0.167280 -0.789084
			-0.874562 -0.304477  0.377406
			-0.318408 -0.193076  0.928083
			-0.607002 -0.124012  0.784965
			-0.985582 -0.165431 -0.035506
			-0.786725 -0.165174 -0.594795
			 0.489502  0.107117  0.865398
			-0.065695 -0.037660  0.997129
			-0.204339 -0.039304 -0.978111
			 0.251385  0.057860 -0.966156
			 0.969748  0.228927 -0.084739
			 0.786523 -0.015554  0.617365
			 0.820273  0.304622 -0.484106
			 0.261826 -0.191323  0.945961
			 0.032581  0.215913 -0.975869
			-0.807768 -0.123926 -0.576327
			-0.540932 -0.321084  0.777366
			-0.821837 -0.225435  0.523224
			-0.810254 -0.204574 -0.549215
			 0.538450  0.103830  0.836237
			 0.022476 -0.025846  0.999413
			-0.251894 -0.013786 -0.967657
			 0.357106  0.111715 -0.927359
			 0.962787  0.235115  0.133274
			 0.751501 -0.089122  0.653685
			 0.592426  0.283866 -0.753957
			 0.217720 -0.251435  0.943069
			 0.028141  0.204334 -0.978497
			-0.707283 -0.034513 -0.706087
			-0.670307 -0.305474  0.676295
			-0.436150 -0.180487  0.881588
			-0.945315 -0.265426  0.189549
			-0.770652 -0.159119 -0.617071
			 0.623438  0.156426  0.766065
			 0.171191 -0.011284  0.985173
			-0.254066  0.006423 -0.967166
			 0.724961  0.199058 -0.659399
			 0.745984 -0.114025  0.656130
			 0.825761  0.125387 -0.549906
			-0.113952  0.093957 -0.989033
			 0.049653 -0.277432  0.959461
			 0.091359  0.164084 -0.982207
			-0.688752 -0.013586 -0.724869
			-0.757756 -0.347265  0.552461
			-0.202782 -0.157191  0.966525
			-0.808197 -0.253261  0.531673
			-0.941172 -0.189168 -0.280019
			 0.312735  0.037296  0.949108
			 0.710630  0.172337  0.682133
			-0.564036 -0.007165 -0.825719
			-0.087602  0.101791 -0.990941
			 0.922125  0.307467 -0.234840
			-0.040163  0.096622 -0.994510
			 0.427838 -0.272300  0.861863
			 0.683960  0.032526 -0.728794
			-0.567848 -0.327837  0.755031
			 0.111449  0.327820 -0.938143
			-0.931268  0.143844 -0.334738
			-0.871172 -0.271745  0.408917
			 0.062623  0.244640  0.967590
			-0.987962  0.124509  0.091801
			 0.074403 -0.033193  0.996676
			 0.172588 -0.077837  0.981914
			-0.929716 -0.141105 -0.340174
			-0.989781 -0.038874  0.137191
			 0.410966  0.101308  0.906004
			 0.087232  0.485162  0.870062
			-0.027874  0.040106  0.998807
			 0.757145 -0.184166  0.626749
			 0.890082 -0.116385  0.440691
			-0.894597 -0.005881 -0.446836
			-0.737525 -0.053447 -0.673201
			-0.213715  0.139165 -0.966933
			-0.288665  0.684917 -0.669001
			-0.192652  0.311880 -0.930385
			 0.867702 -0.210226  0.450442
			 0.970191  0.231454  0.071823
			 0.209889 -0.389981  0.896583
			 0.764680  0.263399 -0.588120
			-0.653726 -0.336879  0.677609
			-0.629972  0.351143 -0.692701
			-0.972653 -0.073356  0.220376
			 0.068543  0.390507  0.918045
			-0.999380 -0.014453 -0.032112
			 0.068281 -0.182346  0.980861
			 0.575215 -0.061036  0.815722
			-0.532900 -0.266988  0.802954
			-0.956157 -0.252476 -0.148391
			-0.496640 -0.100518 -0.862116
			-0.972044 -0.211824 -0.101297
			-0.576770 -0.030368 -0.816342
			-0.299122  0.575589 -0.761067
			-0.053256  0.094836 -0.994067
			 0.041164  0.999030  0.015664
			-0.013238  0.629724 -0.776706
			-0.387172  0.633657 -0.669758
			 0.887328 -0.403469  0.223299
			 0.167940 -0.712114 -0.681681
			 0.830746 -0.012327  0.556516
			 0.664528  0.016533  0.747081
			 0.194827 -0.451794  0.870588
			 0.946631 -0.082709  0.311525
			 0.129118  0.246239 -0.960570
			-0.605946 -0.307283  0.733762
			-0.769660  0.352191 -0.532527
			-0.394487 -0.166507  0.903690
			 0.231736 -0.033563  0.972199
			 0.654602  0.072173  0.752521
			-0.938791 -0.187819  0.288783
			-0.901028 -0.100473 -0.421965
			-0.454525 -0.009192 -0.890687
			-0.124406 -0.070462 -0.989726
			 0.180858 -0.040810 -0.982662
			-0.545063  0.380816 -0.746917
			 0.958628  0.036064 -0.282369
			 0.175089 -0.421177  0.889918
			 0.987654  0.035761 -0.152512
			 0.116649  0.338722 -0.933628
			-0.574684 -0.222821  0.787458
			-0.773659  0.416819 -0.477194
			-0.842350 -0.142636  0.519713
			-0.209928 -0.091291  0.973445
			 0.437837  0.014042  0.898945
			 0.765696  0.120803  0.631757
			-0.957774 -0.080610 -0.275989
			-0.502572 -0.059892 -0.862458
			-0.182222 -0.101052 -0.978051
			 0.785838 -0.014094 -0.618271
			 0.036135 -0.431804  0.901243
			 0.959751  0.280195 -0.019207
			 0.119758  0.389261 -0.913309
			-0.655222 -0.378794  0.653605
			-0.867814  0.066532 -0.492415
			-0.835393 -0.040943  0.548126
			-0.146607 -0.012600  0.989115
			 0.525375  0.047638  0.849536
			 0.823817  0.132457  0.551163
			-0.967992 -0.104577 -0.228156
			-0.489702 -0.044296 -0.870764
			-0.294470 -0.074393 -0.952761
			 0.678978 -0.028314 -0.733613
			-0.345420 -0.596015  0.724880
			 0.120833 -0.311587  0.942504
			 0.958676  0.266828  0.098712
			 0.212565  0.405718 -0.888937
			 0.004524  0.333507 -0.942737
			-0.900376 -0.419509 -0.115482
			-0.881760 -0.030701  0.470699
			-0.234268 -0.051773  0.970793
			 0.754661  0.130382  0.643030
			 0.311625  0.007805  0.950173
			 0.918579  0.180086  0.351827
			-0.950130  0.001635 -0.311850
			-0.639691 -0.005426 -0.768613
			-0.253077 -0.066507 -0.965158
			-0.407029 -0.211509 -0.888589
			 0.572373 -0.035485 -0.819226
			-0.335422 -0.609982  0.717923
			 0.015026 -0.495263  0.868613
			 0.197790 -0.411006  0.889918
			 0.303289  0.514195 -0.802259
			 0.949639  0.273312  0.153253
			 0.133505  0.445430 -0.885307
			-0.577843 -0.215190 -0.787268
			 0.053076  0.259569 -0.964265
			-0.997482 -0.036582  0.060763
			-0.555072 -0.029310  0.831286
			 0.893380  0.174434  0.414059
			 0.612637  0.174277  0.770911
			 0.044551  0.050919  0.997709
			-0.710781 -0.163453 -0.684159
			-0.319194 -0.178021 -0.930819
			-0.412689 -0.194806 -0.889797
			 0.650957 -0.073696 -0.755529
			-0.047026 -0.571014  0.819592
			-0.768671 -0.471667 -0.432059
			 0.113222 -0.517979  0.847867
			 0.937325  0.278170  0.209866
			 0.184895  0.516984 -0.835788
			-0.006254  0.473026 -0.881026
			-0.992846 -0.045187  0.110519
			-0.643851  0.019833  0.764894
			 0.708597  0.143760  0.690814
			 0.901033  0.177947  0.395568
			 0.136080  0.116533  0.983820
			-0.758583 -0.079451 -0.646714
			-0.373877 -0.174774 -0.910862
			-0.404767 -0.234368 -0.883875
			 0.658518 -0.076646 -0.748652
			-0.077491 -0.605846  0.791799
			-0.090235  0.491523 -0.866177
			-0.735722 -0.569157 -0.367115
			 0.778054  0.531902  0.334234
			 0.104457  0.571845 -0.813684
			-0.993371  0.030311  0.110885
			-0.683908  0.030040  0.728949
			 0.736616  0.139475  0.661773
			 0.231585  0.057957  0.971087
			 0.882629  0.242925  0.402433
			-0.791574 -0.123847 -0.598391
			-0.426097 -0.223015 -0.876758
			 0.666945  0.008835 -0.745055
			-0.473514 -0.751020 -0.460167
			-0.082064 -0.711800  0.697572
			-0.015088 -0.448278  0.893767
			 0.017898  0.432141 -0.901629
			 0.170020  0.562705 -0.808985
			 0.605293  0.748338  0.271313
			-0.991542  0.027771  0.126778
			-0.574825  0.121979  0.809134
			 0.439187  0.180386  0.880100
			 0.792321  0.199354  0.576616
			 0.897608  0.231224  0.375281
			-0.841011 -0.105757 -0.530580
			-0.467692 -0.248452 -0.848255
			 0.668265 -0.109604 -0.735804
			-0.306207 -0.866883 -0.393383
			-0.209482 -0.568293  0.795714
			-0.047441 -0.282387  0.958127
			 0.221296  0.270394 -0.936971
			 0.310272  0.385590 -0.868937
			 0.820950  0.516940  0.242517
			-0.986369  0.073847  0.147047
			-0.484248  0.235028  0.842773
			 0.510513  0.231969  0.827990
			 0.851970  0.159423  0.498729
			 0.940990  0.105435  0.321591
			-0.829379 -0.090742 -0.551269
			-0.537911 -0.255105 -0.803475
			 0.592556 -0.251046 -0.765411
			-0.093834 -0.938776 -0.331504
			-0.146606 -0.393771  0.907442
			 0.277974  0.312199 -0.908439
			 0.538403  0.825827  0.167724
			-0.959767  0.004425  0.280764
			-0.406426  0.200693  0.891370
			 0.534763  0.205808  0.819556
			 0.879988  0.059689  0.471230
			 0.980711  0.010434  0.195183
			-0.942262 -0.111042 -0.315930
			-0.588254 -0.208555 -0.781321
			-0.575109 -0.310860 -0.756714
			 0.434514 -0.268128 -0.859829
			-0.112179 -0.845765 -0.521629
			 0.056833 -0.307033  0.950001
			 0.053100  0.526714 -0.848382
			 0.435858  0.895075  0.094177
			-0.971708  0.065673  0.226872
			-0.407021  0.226581  0.884870
			 0.430554  0.144122  0.890984
			 0.884989  0.069641  0.460375
			 0.995121  0.011388  0.098001
			-0.880122 -0.093555 -0.465439
			-0.636171 -0.252577 -0.729034
			-0.583757 -0.301422 -0.753905
			-0.204360 -0.208063 -0.956529
			 0.580052 -0.152282 -0.800218
			-0.921738 -0.308466 -0.235049
			 0.000000  0.000000  0.000000
			 0.208768 -0.211982  0.954715
			-0.091934  0.543471 -0.834378
			 0.541944  0.840233 -0.017455
			-0.837197  0.176950  0.517485
			-0.057973  0.130140  0.989799
			 0.650093  0.161807  0.742427
			 0.919425  0.108559  0.377984
			 0.991907  0.022713 -0.124918
			-0.921281 -0.024798 -0.388106
			-0.516801 -0.238052 -0.822343
			 0.251485 -0.280215 -0.926410
			-0.157207  0.458942 -0.874447
			-0.860737 -0.430816 -0.271164
			-0.036851 -0.589955  0.806594
			 0.319434 -0.263130  0.910343
			-0.173006  0.518996 -0.837086
			 0.515158  0.851735  0.095702
			-0.951093  0.208439  0.227982
			-0.252607  0.258883  0.932292
			 0.666501  0.134508  0.733269
			 0.925437  0.103713  0.364431
			 0.994540  0.006241 -0.104168
			-0.966249  0.017462 -0.257017
			-0.705714 -0.243079 -0.665493
			 0.510204 -0.250729 -0.822695
			-0.357703 -0.345116 -0.867723
			-0.782376  0.018084 -0.622544
			-0.318389 -0.747673 -0.582764
			 0.191580 -0.485473  0.853002
			-0.220486  0.585609 -0.780031
			 0.593109  0.801044  0.080934
			-0.956463  0.119755  0.266151
			-0.268362  0.278931  0.922052
			 0.738469  0.216396  0.638620
			 0.949278  0.133841  0.284531
			 0.985218  0.014501 -0.170691
			-0.991251 -0.005156 -0.131889
			-0.796400 -0.216242 -0.564788
			-0.312055 -0.266421 -0.911944
			 0.332785 -0.219407 -0.917123
			-0.901304 -0.430793 -0.045474
			-0.305683  0.467268 -0.829590
			-0.029615 -0.625653  0.779539
			 0.404807 -0.416388  0.814096
			-0.224638  0.594649 -0.771965
			 0.744560  0.653856 -0.134549
			-0.970524  0.059555  0.233532
			-0.220212  0.314305  0.923428
			 0.751219  0.211978  0.625088
			 0.964318  0.092216  0.248169
			 0.893500 -0.014240 -0.448838
			-0.988322 -0.072674 -0.133930
			-0.674742 -0.221076 -0.704165
			 0.033616 -0.253150 -0.966843
			-0.516267 -0.787488  0.336645
			-0.344013  0.495907 -0.797328
			 0.434094 -0.479000  0.762969
			 0.683966  0.674385 -0.278201
			-0.971045  0.029561  0.237062
			-0.301264  0.267873  0.915142
			 0.632269  0.193565  0.750179
			 0.991943  0.115716 -0.051566
			 0.906347  0.161554  0.390429
			 0.676448  0.019982 -0.736220
			-0.959012 -0.210799 -0.189370
			-0.685566 -0.292753 -0.666555
			-0.133987 -0.216091 -0.967136
			-0.846575  0.072657 -0.527288
			 0.471614 -0.429022  0.770403
			-0.500375  0.447016 -0.741486
			 0.633018  0.658260 -0.407410
			-0.963598  0.000205  0.267356
			-0.418842  0.261570  0.869570
			 0.451265  0.252432  0.855943
			 0.974655  0.131610 -0.180907
			 0.923320  0.166877  0.345877
			 0.688383  0.050386 -0.723595
			 0.009698 -0.124308 -0.992196
			-0.941504 -0.216237 -0.258481
			-0.635975 -0.241814 -0.732845
			-0.772220 -0.635020  0.020618
			 0.608653 -0.329582  0.721746
			-0.553032  0.289706 -0.781170
			 0.580014  0.659363 -0.478356
			-0.603010  0.235510  0.762177
			-0.988621 -0.032236  0.146931
			 0.407461  0.284289  0.867845
			 0.951809  0.152817 -0.265906
			 0.938006  0.159973  0.307494
			 0.345009 -0.010658 -0.938539
			-0.572240 -0.152942 -0.805698
			-0.900308 -0.160644 -0.404522
			-0.624016 -0.780726  0.032740
			 0.652934 -0.240405  0.718250
			-0.606441  0.158151 -0.779241
			 0.527949  0.678949 -0.510194
			-0.910514  0.008945  0.413381
			-0.422749  0.317079  0.848967
			-0.943212 -0.181521 -0.278211
			 0.465814  0.270884  0.842401
			 0.932767  0.140154 -0.332119
			 0.961441  0.178576  0.209148
			-0.508837 -0.142696 -0.848954
			 0.295102 -0.022889 -0.955192
			-0.570967 -0.812306  0.118977
			 0.723475 -0.254001  0.641925
			-0.724151  0.207580 -0.657660
			 0.427333  0.743713 -0.514078
			-0.599285  0.136802  0.788761
			-0.948466 -0.081338  0.306262
			-0.991749 -0.097360 -0.083392
			-0.715250 -0.147490 -0.683129
			 0.130862  0.177090  0.975456
			 0.869667  0.167365  0.464402
			 0.826869  0.175278 -0.534383
			 0.980175  0.196195 -0.027657
			 0.035313 -0.016558 -0.999239
			-0.053309 -0.992465  0.110320
			 0.562975 -0.808086  0.173367
			 0.810518 -0.498715  0.307155
			-0.237743 -0.600082 -0.763793
			-0.374344 -0.629994 -0.680422
			 0.680881 -0.537825 -0.497137
			-0.403943  0.186992  0.895469
			-0.872524  0.017710  0.488251
			-0.986909 -0.146000 -0.068518
			-0.765123 -0.115619 -0.633418
			 0.478070  0.220045  0.850311
			 0.959896  0.207184  0.188875
			 0.227620  0.071790 -0.971100
			 0.919313  0.204515 -0.336210
			-0.365661  0.174141  0.914312
			-0.854544 -0.081454  0.512951
			-0.986111 -0.146682 -0.077911
			-0.771124 -0.094813 -0.629585
			 0.574665  0.276959  0.770100
			 0.987182  0.159336  0.009111
			-0.045455  0.042737 -0.998052
			 0.805061  0.128900 -0.579018
			-0.306534  0.212203  0.927905
			-0.871773 -0.021574  0.489434
			-0.983441 -0.111681 -0.142732
			-0.695139 -0.005096 -0.718858
			 0.653837  0.326149  0.682732
			 0.873585  0.082853 -0.479568
			 0.990200  0.128072  0.055693
			 0.121425  0.165913 -0.978636
			-0.043219  0.500644  0.864574
			-0.588134  0.299474  0.751275
			-0.947010  0.071384  0.313172
			-0.829328 -0.028588 -0.558030
			 0.771336  0.442544  0.457378
			 0.179782 -0.087599 -0.979799
			 0.973378 -0.068541 -0.218718
			 0.387305  0.402048  0.829670
			-0.590192  0.447677  0.671758
			-0.985559  0.151204  0.076226
			-0.736515 -0.058047 -0.673926
			 0.189664 -0.338105 -0.921798
			 0.954396 -0.134488  0.266537
			 0.894010 -0.339579 -0.292290
			 0.554825  0.223219  0.801463
			-0.455008  0.488978  0.744223
			-0.932969  0.336113  0.128831
			-0.707675 -0.076893 -0.702342
			 0.167257 -0.370752 -0.913547
			 0.939189 -0.205347  0.275239
			 0.762479 -0.389140 -0.516910
			-0.333477  0.467492  0.818684
			 0.444499  0.281236  0.850487
			-0.899843  0.407624  0.155322
			-0.665270  0.123900 -0.736251
			-0.061353 -0.150104 -0.986765
			 0.919620 -0.064246  0.387521
			 0.695840 -0.278795 -0.661877
			-0.061227  0.352755  0.933711
			-0.830086  0.556716  0.032006
			-0.495230  0.061896 -0.866554
			 0.993980  0.046492  0.099209
			 0.547665  0.137619  0.825303
			 0.582179 -0.151888 -0.798748
			-0.214633  0.690614  0.690641
			-0.564967  0.667887 -0.484499
			 0.711707  0.702450  0.006173
			 0.390400  0.457611 -0.798862
		</DataArray>
	</PointData>
	<Points>
		<DataArray type="Float32" NumberOfComponents="3" format="ascii">
			 0.044464 -0.351266 -0.091642
			 0.044463 -0.342863 -0.088046
			 0.040733 -0.343999 -0.091141
			 0.044957 -0.352115 -0.091661
			 0.046741 -0.356876 -0.091667
			 0.047356 -0.352258 -0.090364
			 0.047370 -0.354608 -0.090877
			 0.047468 -0.340830 -0.092444
			 0.045214 -0.352984 -0.091635
			 0.052445 -0.350604 -0.086789
			 0.054518 -0.338965 -0.084858
			 0.041813 -0.333384 -0.085592
			 0.036020 -0.335299 -0.089467
			 0.042604 -0.332147 -0.091074
			 0.048991 -0.351257 -0.092106
			 0.054884 -0.353890 -0.086543
			 0.049041 -0.362461 -0.091793
			 0.061256 -0.356313 -0.095541
			 0.054613 -0.360586 -0.087131
			 0.054637 -0.352895 -0.094132
			 0.050802 -0.351083 -0.088278
			 0.051919 -0.349823 -0.093022
			 0.052875 -0.338194 -0.094055
			 0.053850 -0.350012 -0.086631
			 0.058457 -0.347596 -0.086920
			 0.059290 -0.336600 -0.086525
			 0.051628 -0.329433 -0.083378
			 0.036155 -0.325117 -0.083803
			 0.030503 -0.327018 -0.087378
			 0.034870 -0.324921 -0.088488
			 0.054647 -0.326671 -0.092229
			 0.044211 -0.320434 -0.090861
			 0.062526 -0.357059 -0.086429
			 0.061680 -0.350745 -0.086729
			 0.056149 -0.365713 -0.092808
			 0.050738 -0.368291 -0.092149
			 0.059193 -0.350598 -0.095555
			 0.063564 -0.355240 -0.095635
			 0.062400 -0.362540 -0.094906
			 0.057481 -0.365976 -0.086813
			 0.056321 -0.345349 -0.094919
			 0.057824 -0.348718 -0.095297
			 0.057564 -0.336147 -0.093986
			 0.060236 -0.343392 -0.094942
			 0.061036 -0.345590 -0.095123
			 0.062619 -0.345988 -0.087919
			 0.060657 -0.346882 -0.087018
			 0.063420 -0.345313 -0.089761
			 0.061199 -0.335174 -0.090147
			 0.056156 -0.327064 -0.085722
			 0.049506 -0.319506 -0.082255
			 0.038334 -0.313677 -0.080364
			 0.026270 -0.318535 -0.083069
			 0.025424 -0.318691 -0.084395
			 0.037340 -0.312744 -0.088802
			 0.057109 -0.325938 -0.090086
			 0.050688 -0.317608 -0.090752
			 0.042189 -0.310339 -0.090500
			 0.067320 -0.354308 -0.090216
			 0.064780 -0.362698 -0.086335
			 0.069947 -0.359689 -0.090715
			 0.065640 -0.348332 -0.090820
			 0.055258 -0.372810 -0.092607
			 0.052376 -0.374179 -0.092279
			 0.055974 -0.373175 -0.087851
			 0.063605 -0.348632 -0.095161
			 0.061858 -0.345299 -0.094821
			 0.066772 -0.354004 -0.094027
			 0.067909 -0.359991 -0.095047
			 0.069526 -0.366028 -0.094231
			 0.062091 -0.370728 -0.085391
			 0.059020 -0.346381 -0.095020
			 0.057756 -0.344705 -0.094821
			 0.062111 -0.342459 -0.092922
			 0.061032 -0.343724 -0.094660
			 0.063912 -0.344960 -0.090541
			 0.064141 -0.344377 -0.091961
			 0.063734 -0.344713 -0.092541
			 0.051868 -0.318272 -0.083466
			 0.046157 -0.310100 -0.081236
			 0.025079 -0.308578 -0.079611
			 0.038177 -0.302834 -0.079565
			 0.020473 -0.310237 -0.081846
			 0.027102 -0.306639 -0.086086
			 0.034689 -0.302754 -0.089490
			 0.045250 -0.309043 -0.090205
			 0.047517 -0.309161 -0.083340
			 0.040202 -0.300184 -0.090414
			 0.068881 -0.367302 -0.087529
			 0.071788 -0.365496 -0.090772
			 0.056637 -0.378917 -0.092048
			 0.066187 -0.374338 -0.093410
			 0.054048 -0.380158 -0.091678
			 0.057388 -0.379200 -0.087744
			 0.064707 -0.376301 -0.084611
			 0.062941 -0.344917 -0.093430
			 0.071853 -0.371849 -0.092664
			 0.069234 -0.374031 -0.085941
			 0.042051 -0.300950 -0.080688
			 0.021685 -0.299114 -0.079071
			 0.035401 -0.293125 -0.078864
			 0.016262 -0.301151 -0.081194
			 0.019624 -0.299373 -0.083051
			 0.030487 -0.293630 -0.089051
			 0.033256 -0.292126 -0.090828
			 0.041827 -0.300335 -0.085086
			 0.035228 -0.291574 -0.088890
			 0.073062 -0.371708 -0.089823
			 0.055736 -0.385991 -0.092036
			 0.068391 -0.380033 -0.093089
			 0.073768 -0.377834 -0.091256
			 0.057486 -0.385737 -0.088270
			 0.063376 -0.383552 -0.084733
			 0.069157 -0.380878 -0.084889
			 0.073815 -0.378212 -0.088520
			 0.037884 -0.291777 -0.080450
			 0.020485 -0.288644 -0.078800
			 0.013361 -0.291258 -0.081967
			 0.034319 -0.282300 -0.080458
			 0.023263 -0.286033 -0.087372
			 0.026428 -0.284222 -0.089964
			 0.029174 -0.282945 -0.090404
			 0.035040 -0.281756 -0.081859
			 0.068462 -0.386713 -0.092721
			 0.056704 -0.392185 -0.092174
			 0.074784 -0.383975 -0.091613
			 0.075325 -0.383976 -0.089908
			 0.065484 -0.389329 -0.084149
			 0.058430 -0.392083 -0.087452
			 0.070773 -0.386725 -0.085375
			 0.015259 -0.279917 -0.078675
			 0.025258 -0.275422 -0.079320
			 0.010652 -0.281567 -0.080973
			 0.015494 -0.278722 -0.085406
			 0.032222 -0.272010 -0.081502
			 0.019420 -0.276500 -0.088470
			 0.023389 -0.274583 -0.089546
			 0.029242 -0.272635 -0.085710
			 0.071980 -0.391736 -0.092876
			 0.065954 -0.394600 -0.092183
			 0.059228 -0.398191 -0.088719
			 0.058203 -0.397955 -0.093555
			 0.076345 -0.390068 -0.090581
			 0.074726 -0.391309 -0.087157
			 0.069586 -0.394090 -0.084265
			 0.063376 -0.396789 -0.085282
			 0.014929 -0.269318 -0.076843
			 0.009747 -0.271302 -0.078639
			 0.027828 -0.262975 -0.081028
			 0.008292 -0.271531 -0.081161
			 0.011697 -0.269479 -0.084597
			 0.031078 -0.261376 -0.082083
			 0.019232 -0.265638 -0.087878
			 0.026119 -0.262891 -0.086166
			 0.077158 -0.396291 -0.091011
			 0.072076 -0.398361 -0.092797
			 0.067651 -0.400429 -0.092538
			 0.059343 -0.403974 -0.094359
			 0.061064 -0.404079 -0.088233
			 0.076184 -0.397204 -0.087815
			 0.070663 -0.400222 -0.084486
			 0.065343 -0.402597 -0.084933
			 0.010392 -0.260469 -0.075606
			 0.014083 -0.258887 -0.075371
			 0.006041 -0.261761 -0.079419
			 0.028936 -0.251435 -0.081100
			 0.010468 -0.259346 -0.082324
			 0.029876 -0.250803 -0.082449
			 0.015519 -0.256684 -0.085056
			 0.021233 -0.253958 -0.086396
			 0.077042 -0.402846 -0.092086
			 0.065584 -0.407821 -0.094016
			 0.062452 -0.409912 -0.089522
			 0.060939 -0.409775 -0.095223
			 0.065324 -0.409119 -0.085932
			 0.077036 -0.403349 -0.088661
			 0.071952 -0.406148 -0.085462
			 0.008665 -0.250422 -0.074148
			 0.005635 -0.251316 -0.076845
			 0.013603 -0.248373 -0.073420
			 0.028938 -0.240474 -0.080600
			 0.029330 -0.240056 -0.082116
			 0.017802 -0.244690 -0.084751
			 0.077930 -0.409364 -0.090263
			 0.077106 -0.409325 -0.093117
			 0.067562 -0.413360 -0.095469
			 0.066265 -0.415079 -0.087763
			 0.063926 -0.415746 -0.090542
			 0.063006 -0.415348 -0.096161
			 0.072781 -0.412223 -0.086851
			 0.007664 -0.240124 -0.072282
			 0.005311 -0.240646 -0.075431
			 0.009994 -0.237704 -0.080890
			 0.012334 -0.238188 -0.071573
			 0.025994 -0.230997 -0.078925