<?xml version="1.0"?>
<VTKFile type="PolyData" version="0.1" byte_order="LittleEndian" compressor="vtkZLibDataCompressor">
	<PolyData>
		<Piece NumberOfPoints="536" NumberOfVerts="0" NumberOfLines="0" NumberOfStrips="0" NumberOfPolys="1054">
		<PointData Normals="Normals">
		<DataArray type="Float32" Name="Normals" NumberOfComponents="3" format="ascii">
			-0.793208 -0.157236 -0.588301
			-0.579909 -0.321487 -0.748566
			-0.405218 -0.256057 -0.877629
			-0.375914 -0.417596 -0.827226
			-0.812523 -0.582048 -0.032043
			-0.379279 -0.569104 -0.729567
			-0.483053 -0.537893 -0.690892
			-0.584603 -0.564736 -0.582505
			-0.508858 -0.439520 -0.740193
			-0.247619 -0.314298 -0.916462
			-0.302007 -0.398168 -0.866172
			-0.105638 -0.123699 -0.986681
			-0.213464 -0.309816 -0.926524
			-0.319699 -0.852072  0.414447
			-0.454819 -0.702502  0.547385
			-0.176511 -0.530934 -0.828826
			-0.190788 -0.366415  0.910681
			-0.598334 -0.535632  0.595899
			-0.768283 -0.583394 -0.263427
			-0.664460 -0.644527  0.378256
			-0.744268 -0.308199 -0.592518
			-0.274620 -0.557937 -0.783128
			-0.704182 -0.704287  0.090047
			-0.581330 -0.574119 -0.576578
			-0.068630 -0.228027 -0.971233
			-0.190903  0.009284 -0.981565
			-0.437407 -0.472323 -0.765236
			 0.000000  0.000000  0.000000
			-0.257052 -0.361336 -0.896304
			 0.006856 -0.303990 -0.952651
			 0.172490 -0.148510 -0.973751
			 0.093355 -0.078758 -0.992513
			 0.190125  0.151749 -0.969961
			-0.351734 -0.933284  0.072552
			 0.049443 -0.259905  0.964368
			-0.172345 -0.343121  0.923345
			-0.061778 -0.383427  0.921503
			 0.046230 -0.455380  0.889096
			-0.083877 -0.418975  0.904115
			-0.411038 -0.720074  0.559053
			-0.742045 -0.626494 -0.238485
			-0.460502 -0.565584 -0.684144
			 0.225776  0.127608 -0.965785
			 0.184246 -0.184428 -0.965422
			 0.265892  0.064086 -0.961870
			 0.035114 -0.061764 -0.997473
			 0.078367  0.271522 -0.959236
			 0.196577  0.128658 -0.972011
			 0.142578  0.092398 -0.985461
			 0.211817  0.256475 -0.943056
			 0.518980  0.112692 -0.847325
			 0.203753 -0.347739 -0.915184
			 0.394418  0.228859 -0.889976
			-0.201032 -0.453384  0.868349
			-0.372794 -0.145536  0.916430
			-0.720652 -0.604712  0.339093
			-0.137211 -0.236704  0.961844
			-0.418371 -0.210773  0.883482
			-0.007106 -0.249731  0.968289
			-0.022437 -0.229570  0.973034
			 0.259636 -0.608364  0.749988
			-0.099360 -0.467582  0.878348
			-0.077022 -0.340961  0.936917
			-0.020159 -0.372304  0.927892
			-0.083551 -0.680630  0.727847
			-0.482834 -0.813738  0.323576
			-0.710095 -0.567739 -0.416459
			-0.247963 -0.383323 -0.889706
			 0.439846  0.422344 -0.792566
			 0.474940  0.294533 -0.829266
			 0.405742  0.086192 -0.909914
			 0.318767  0.191033 -0.928383
			 0.398186  0.333259 -0.854626
			 0.065500  0.407256 -0.910962
			 0.071324 -0.051056 -0.996146
			 0.046574 -0.046644 -0.997825
			 0.520842  0.470000 -0.712617
			 0.180953  0.060858 -0.981607
			 0.258795  0.582613 -0.770447
			 0.247737  0.298347 -0.921746
			 0.609133  0.274845 -0.743920
			 0.831907  0.214616 -0.511733
			 0.695159  0.099450 -0.711943
			 0.485805 -0.165267 -0.858301
			-0.443457 -0.304890  0.842845
			-0.525927 -0.310489  0.791831
			-0.712071 -0.296003  0.636661
			-0.630136 -0.307087  0.713180
			-0.319277 -0.699767 -0.639053
			 0.027636 -0.527478  0.849119
			-0.094248 -0.148510  0.984410
			-0.144995 -0.159645  0.976468
			 0.170940 -0.135352  0.975940
			-0.059555 -0.232446  0.970784
			-0.104008 -0.160785  0.981494
			-0.144282 -0.268349  0.952456
			-0.010342 -0.239714  0.970789
			 0.088070 -0.312188  0.945929
			 0.184859 -0.480600  0.857235
			 0.389668 -0.474244  0.789463
			 0.517155 -0.422299  0.744456
			-0.641295 -0.767136  0.015564
			-0.692123 -0.645285 -0.323377
			-0.098597 -0.821657  0.561390
			-0.503225 -0.446428 -0.739910
			 0.252341 -0.029038 -0.967203
			 0.785784  0.615754 -0.058230
			 0.797465  0.521337 -0.303737
			 0.808424  0.483054 -0.336317
			 0.420517  0.194428 -0.886207
			 0.334954  0.419415 -0.843739
			 0.667546  0.579124 -0.467972
			 0.499262  0.272018 -0.822644
			 0.834670  0.500404 -0.230048
			 0.671128  0.367507 -0.643837
			 0.808777  0.387660 -0.442267
			 0.822813  0.338797 -0.456284
			 0.678944  0.401254 -0.614842
			 0.742303  0.264197 -0.615781
			 0.804555  0.287553 -0.519619
			 0.672566  0.232980 -0.702407
			-0.433450 -0.286167  0.854534
			-0.623411 -0.187845  0.758994
			-0.620805 -0.235415  0.747784
			-0.454128 -0.145411  0.878990
			-0.589104 -0.224740  0.776175
			-0.648601 -0.313553  0.693542
			 0.593564  0.210120 -0.776872
			 0.046345 -0.923427 -0.380965
			-0.251395 -0.293015  0.922466
			 0.010481 -0.047994  0.998793
			-0.041915 -0.226190  0.973181
			 0.194216 -0.135178  0.971600
			-0.387272 -0.327927  0.861675
			-0.372139 -0.115634  0.920946
			-0.409058 -0.313029  0.857138
			 0.105882  0.032459  0.993849
			 0.372305  0.378127  0.847590
			-0.125323 -0.100606  0.987002
			 0.004472 -0.051447  0.998666
			 0.223457 -0.459060  0.859843
			 0.209962 -0.045856  0.976634
			 0.346621 -0.439055  0.828906
			 0.386518 -0.355372  0.851066
			 0.412311 -0.524427  0.744967
			-0.293142 -0.927232  0.233043
			-0.707517 -0.671029 -0.221677
			-0.745270 -0.457144 -0.485378
			-0.425149 -0.315185 -0.848473
			 0.518282  0.007745 -0.855175
			 0.302808 -0.114448 -0.946155
			 0.417376  0.094629  0.903794
			 0.566810  0.353382  0.744209
			 0.534052  0.445614  0.718482
			 0.477194  0.132391 -0.868768
			 0.599555  0.365682 -0.711906
			 0.747248  0.515121  0.419847
			 0.783512  0.408120 -0.468558
			 0.804349  0.383928 -0.453456
			 0.895590  0.436165  0.087631
			 0.568413  0.417157 -0.709145
			 0.810285  0.385801 -0.441131
			 0.870213  0.210448 -0.445468
			 0.865369  0.088687 -0.493225
			 0.862366  0.462975 -0.204887
			 0.829792  0.398074 -0.391129
			 0.782908  0.427165 -0.452310
			 0.747875  0.297896 -0.593246
			 0.238021  0.239315  0.941315
			 0.685003  0.470770  0.556009
			 0.694492  0.303658 -0.652283
			 0.505664  0.392233  0.768413
			-0.419949 -0.092610  0.902810
			 0.436067  0.459270  0.773897
			-0.601345 -0.192572  0.775436
			-0.544205 -0.235038  0.805356
			-0.206687 -0.900857  0.381757
			 0.674836 -0.280584 -0.682546
			 0.688178  0.319520 -0.651397
			-0.176557 -0.154458  0.972096
			 0.252166 -0.248483  0.935237
			 0.281122 -0.320846  0.904449
			 0.458781 -0.295670  0.837914
			 0.482946 -0.616212  0.622130
			-0.059563 -0.977424  0.202719
			-0.579897 -0.780220 -0.234469
			-0.755347 -0.416810 -0.505688
			-0.387633 -0.270356 -0.881277
			 0.557010  0.144142 -0.817902
			 0.407010 -0.005844 -0.913405
			 0.816409  0.436916  0.377599
			 0.712176  0.410270  0.569634
			 0.785056  0.440926 -0.435053
			 0.570734  0.293323  0.766958
			 0.847144  0.092922 -0.523176
			 0.823536  0.384232 -0.417318
			 0.783357  0.405573 -0.471023
			 0.461488  0.406688  0.788437
			 0.746156  0.407980  0.526121
			-0.146270 -0.734149  0.663047
			 0.684533 -0.409012 -0.603426
			 0.432667 -0.067002  0.899061
			 0.626421 -0.249588  0.738446
			 0.737740 -0.431755  0.518967
			-0.353505 -0.930745  0.093529
			-0.629512 -0.744205 -0.223325
			 0.304833 -0.851855  0.425934
			-0.750939 -0.487598 -0.445352
			-0.696523 -0.284973 -0.658518
			-0.196981 -0.182408 -0.963289
			 0.632532  0.309643 -0.709947
			 0.473261  0.319990 -0.820750
			 0.490423  0.079394 -0.867861
			 0.729888  0.541056 -0.417758
			 0.644618  0.585867  0.491150
			 0.627461 -0.778470  0.016631
			 0.576466  0.469263  0.668940
			 0.460201  0.132874  0.877815
			 0.450920 -0.227249  0.863151
			 0.763380 -0.051385  0.643903
			 0.756071  0.044183  0.652996
			-0.685113 -0.708822 -0.167902
			-0.293917 -0.933866  0.203734
			-0.797091 -0.446506 -0.406545
			 0.417836 -0.758328  0.500352
			-0.731599 -0.362189 -0.577566
			-0.439330 -0.309402 -0.843362
			 0.459894  0.047072 -0.886725
			 0.562193  0.290302 -0.774380
			 0.553977  0.351201 -0.754830
			 0.740105  0.671886  0.028506
			 0.547614  0.271119  0.791589
			 0.613089  0.596257  0.518266
			 0.711748  0.007595  0.702394
			 0.814567  0.303378  0.494411
			-0.835030 -0.424572 -0.349948
			-0.592835 -0.804025 -0.045729
			-0.803343 -0.340494 -0.488572
			 0.962528 -0.016150  0.270701
			 0.501887 -0.749479  0.431730
			-0.177777 -0.964612  0.194726
			-0.653766 -0.405298 -0.639002
			-0.197003 -0.265397 -0.943798
			 0.585465  0.081654 -0.806575
			 0.721699  0.154711 -0.674696
			 0.786542  0.482575 -0.385322
			 0.696687  0.558638  0.450056
			 0.660545  0.139007  0.737806
			 0.838765 -0.106550  0.533967
			 0.961502  0.149409  0.230630
			-0.786203 -0.417040 -0.456028
			-0.833264 -0.453175 -0.316709
			-0.702046 -0.706887 -0.086270
			-0.676624 -0.333169 -0.656641
			 0.941128 -0.157593  0.299069
			 0.357596 -0.838731  0.410678
			-0.200904 -0.948084  0.246523
			-0.287809 -0.172188 -0.942081
			 0.352656  0.019548 -0.935549
			 0.749575  0.169405 -0.639875
			 0.743483  0.517670 -0.423381
			 0.729665  0.640105  0.240532
			 0.734243  0.171312  0.656916
			 0.776125 -0.111008  0.620731
			 0.944080  0.110281  0.310727
			-0.836710 -0.426426 -0.343624
			-0.780428 -0.362880 -0.509167
			-0.760570 -0.635420 -0.133325
			-0.640469 -0.195135 -0.742780
			 0.833498 -0.259101  0.488004
			 0.017684 -0.823863  0.566514
			-0.414011 -0.877040  0.243713
			-0.165909 -0.061472 -0.984223
			 0.589853  0.014899 -0.807373
			 0.754158  0.448393 -0.479780
			 0.817139  0.576423 -0.004526
			 0.792536  0.401064  0.459385
			 0.736643  0.062044  0.673430
			 0.799059  0.191735  0.569862
			 0.890429  0.368038  0.267740
			-0.840249 -0.337401 -0.424432
			-0.873213 -0.398419 -0.280644
			-0.737102 -0.235227 -0.633521
			-0.874539 -0.484451 -0.022130
			-0.519213 -0.061880 -0.852402
			 0.951348  0.149368  0.269491
			 0.486764 -0.394812  0.779221
			-0.630610 -0.642052  0.436004
			-0.237160 -0.645359  0.726132
			 0.000266  0.011020 -0.999939
			 0.538617  0.039096 -0.841643
			 0.892768  0.211278 -0.397904
			 0.924160  0.381551  0.018668
			 0.869230  0.372037  0.325619
			 0.808532  0.185459  0.558463
			 0.689056  0.158289  0.707211
			 0.835041  0.352297  0.422603
			 0.903817  0.417492  0.093891
			-0.856802 -0.400233 -0.325122
			-0.815271 -0.322115 -0.481224
			-0.906950 -0.403508 -0.120925
			-0.754502 -0.154738 -0.637795
			-0.628555 -0.053288 -0.775938
			-0.846345 -0.459732  0.268973
			-0.252437  0.074516 -0.964740
			 0.905466  0.126023  0.405278
			 0.129604 -0.439233  0.888976
			-0.493531 -0.568187  0.658476
			 0.847801  0.248092 -0.468705
			 0.347218  0.212302 -0.913437
			 0.925801  0.259724  0.274658
			 0.925535  0.267651 -0.267858
			 0.799818  0.059862  0.597249
			 0.820577  0.165268  0.547119
			 0.919019  0.377015  0.115172
			-0.870862 -0.313176 -0.378841
			-0.911854 -0.351897 -0.211404
			-0.820493 -0.171145 -0.545436
			-0.919816 -0.391033  0.032127
			-0.669926  0.021607 -0.742113
			-0.690225 -0.533857  0.488452
			-0.294255  0.162746 -0.941768
			 0.916363  0.366865  0.160278
			 0.632941 -0.117131  0.765289
			-0.152407 -0.522010  0.839212
			 0.382439  0.273580 -0.882550
			 0.986148  0.117227 -0.117345
			 0.916083  0.199789  0.347673
			 0.508627  0.199117 -0.837646
			 0.770221  0.083338  0.632308
			 0.763268 -0.081723  0.640892
			 0.939657  0.058444  0.337090
			 0.961572  0.262237  0.081309
			-0.920771 -0.336409 -0.197508
			-0.881876 -0.202993 -0.425545
			-0.809315 -0.045217 -0.585631
			-0.886839 -0.458481  0.057548
			-0.647781  0.065139 -0.759036
			-0.740908 -0.577445  0.342947
			-0.281650  0.185653 -0.941385
			 0.921389  0.225782  0.316330
			 0.429734 -0.355849  0.829880
			-0.321120 -0.667245  0.672061
			 0.499189  0.161740 -0.851264
			 0.976266  0.211491  0.046648
			 0.862345  0.162904  0.479399
			-0.304145  0.189519 -0.933584
			 0.892028 -0.197366  0.406610
			 0.958276  0.196408  0.207680
			-0.936896 -0.246385 -0.248032
			-0.930963 -0.363959 -0.029028
			-0.810761  0.000888 -0.585376
			-0.891509 -0.140344 -0.430714
			-0.644869  0.156577 -0.748082
			-0.800271 -0.574744  0.170985
			 0.854411  0.018223  0.519278
			 0.071636 -0.624858  0.777445
			-0.454405 -0.733317  0.505730
			-0.271382  0.183710 -0.944777
			 0.536103  0.287731 -0.793602
			 0.979958  0.161546  0.116552
			 0.907539  0.208680  0.364452
			 0.946519  0.199688  0.253428
			 0.892304 -0.178648  0.414583
			-0.606508  0.136216 -0.783322
			 0.839991 -0.168021  0.515930
			 0.918362  0.223284  0.326734
			-0.941689 -0.117586 -0.315271
			-0.947236 -0.282224 -0.151963
			-0.914481 -0.401727 -0.048373
			-0.756770  0.084502 -0.648197
			-0.868899  0.001411 -0.494988
			-0.625771 -0.740317  0.245646
			 0.734891 -0.029785  0.677531
			-0.022733 -0.662435  0.748774
			-0.382257  0.246158 -0.890666
			 0.393426  0.486379 -0.780161
			 0.960275  0.269667  0.071775
			 0.900405  0.111218  0.420596
			 0.960583  0.175499  0.215591
			 0.964558  0.023658  0.262810
			 0.775724 -0.168454  0.608174
			-0.664604  0.094152 -0.741240
			 0.757005 -0.033574  0.652546
			 0.858267  0.281666  0.429000
			-0.912484 -0.014797 -0.408844
			-0.948411 -0.181525 -0.259932
			-0.851939 -0.479643 -0.210100
			-0.808551  0.042899 -0.586860
			-0.277662 -0.618860  0.734790
			-0.689089 -0.716953  0.105517
			 0.480436 -0.010640  0.876965
			-0.545569  0.278861 -0.790311
			-0.247068  0.518660 -0.818504
			 0.478330  0.690685 -0.542360
			 0.886183  0.078022  0.456720
			 0.849474  0.520757  0.084889
			 0.955826  0.141139  0.257830
			 0.922976  0.195963  0.331232
			 0.642477  0.082893  0.761809
			 0.645700  0.030430  0.762985
			-0.702386  0.096131 -0.705275
			 0.783515  0.137218  0.606033
			 0.698488  0.351495  0.623350
			-0.924974 -0.101934 -0.366105
			-0.854642 -0.020281 -0.518822
			-0.891657 -0.309924 -0.329992
			-0.845798 -0.533457 -0.006986
			 0.182780 -0.054752  0.981628
			-0.501708 -0.476366  0.722056
			-0.437119  0.420929 -0.794824
			 0.105208  0.736830 -0.667841
			 0.854651  0.517360  0.043699
			 0.922101  0.163416  0.350750
			 0.908634  0.268376  0.319936
			 0.681139  0.269498  0.680749
			 0.591119  0.193436  0.783046
			 0.735534  0.180221  0.653077
			-0.802764  0.066525 -0.592575
			-0.647891  0.216895 -0.730201
			 0.764710  0.291168  0.574839
			 0.535367  0.283153  0.795743
			-0.887866 -0.081789 -0.452774
			-0.900984 -0.212273 -0.378375
			-0.943758 -0.303740 -0.130628
			-0.697399 -0.248302  0.672295
			-0.017152 -0.018425  0.999683
			-0.589496  0.366391 -0.719897
			-0.214881  0.622121 -0.752855
			 0.614386  0.733725 -0.290133
			 0.890381  0.274599  0.363066
			 0.766755  0.310222  0.562004
			 0.732797  0.145494  0.664711
			-0.791856  0.043849 -0.609132
			 0.523389  0.269658  0.808300
			-0.130723  0.158693  0.978636
			-0.882577 -0.107729 -0.457660
			-0.912922 -0.150970 -0.379184
			-0.856509  0.022997  0.515620
			-0.988845 -0.019763 -0.147633
			-0.624840  0.353009 -0.696390
			-0.215996  0.658163 -0.721226
			 0.898566  0.437954  0.027835
			 0.872062  0.328417  0.362836
			 0.719244  0.367116  0.589843
			 0.367039  0.318815  0.873865
			-0.819466  0.132768 -0.557537
			-0.322235  0.361107  0.875081
			-0.912466 -0.036872 -0.407488
			-0.963674  0.084035 -0.253515
			-0.936164  0.238903  0.257921
			-0.388460  0.588859 -0.708762
			-0.626274  0.425090 -0.653514
			 0.278826  0.796528 -0.536469
			 0.923596  0.294184  0.245818
			 0.909760  0.107148  0.401069
			 0.848240  0.335265  0.409983
			 0.694709  0.379020  0.611329
			 0.306049  0.378729  0.873440
			-0.531072  0.431889  0.728996
			-0.799725  0.141007 -0.583573
			-0.987403  0.156595  0.022670
			-0.903425 -0.027660 -0.427853
			-0.408937  0.644848 -0.645710
			 0.440689  0.836098 -0.326702
			-0.601247  0.462512 -0.651602
			 0.922539  0.179151  0.341798
			 0.839311  0.243616  0.486012
			 0.636811  0.373506  0.674511
			-0.526430  0.475966  0.704505
			 0.182736  0.506351  0.842743
			-0.779199  0.220384 -0.586754
			-0.951177  0.277994  0.134096
			-0.958708  0.059935 -0.278006
			-0.892893  0.092694 -0.440624
			-0.393401  0.659136 -0.640918
			 0.303157  0.870741 -0.387176
			-0.593780  0.484814 -0.642169
			 0.832769  0.517044  0.197894
			 0.896359  0.232519  0.377460
			 0.668137  0.356398  0.653126
			 0.557921  0.430207  0.709680
			 0.435834  0.550925  0.711710
			-0.732509  0.438388  0.520814
			-0.043043  0.571600  0.819403
			-0.801468  0.283191 -0.526737
			-0.978481  0.076215 -0.191747
			-0.920589  0.123139 -0.370610
			-0.466325  0.656640 -0.592761
			 0.305742  0.877379 -0.369767
			-0.689684  0.499339 -0.524401
			 0.838194  0.540578  0.072158
			 0.858503  0.332747  0.390194
			 0.732146  0.201560  0.650643
			 0.413332  0.427234  0.804131
			-0.251180  0.574317  0.779146
			-0.979207  0.191289  0.067543
			-0.861743  0.276671 -0.425267
			-0.949019  0.097509 -0.299758
			-0.552573  0.591226 -0.587465
			 0.279626  0.928144 -0.245678
			-0.765118  0.410769 -0.495846
			 0.834392  0.476853  0.276410
			 0.811830  0.185647  0.553594
			 0.448012  0.206860  0.869767
			-0.499688  0.486130  0.716930
			-0.953691  0.276005 -0.119561
			-0.883241  0.296146 -0.363570
			-0.640144  0.461581 -0.614132
			 0.268182  0.882917 -0.385404
			-0.840774  0.307813 -0.445366
			 0.875971  0.344005  0.338136
			 0.809024  0.010436  0.587683
			-0.611404  0.341243  0.713960
			 0.375893 -0.070818  0.923953
			-0.940990  0.263184 -0.212772
			-0.721066  0.388610 -0.573625
			 0.262132  0.873394 -0.410450
			-0.914847  0.208878 -0.345579
			 0.881075  0.320243  0.348067
			 0.793377 -0.027124  0.608126
			-0.903795  0.012973  0.427768
			 0.245853 -0.227374  0.942262
			-0.768028  0.431006 -0.473673
			 0.170615  0.917772 -0.358586
			-0.946695  0.247237 -0.206499
			 0.871369  0.305566  0.383856
			 0.738774 -0.042097  0.672637
			-0.483874 -0.007639  0.875104
			-0.652381  0.747424 -0.125525
			 0.009199  0.995965 -0.089264
			-0.462611  0.565515  0.682776
			-0.660949  0.750125  0.021405
			 0.588740  0.663522  0.461653
			 0.148610  0.862116  0.484429
			 0.193138  0.705237  0.682157
		</DataArray>
	</PointData>
	<Points>
		<DataArray type="Float32" NumberOfComponents="3" format="ascii">
			-0.046969 -0.192769 -0.150113
			-0.047751 -0.193261 -0.148191
			-0.045399 -0.191798 -0.152014
			-0.043557 -0.194638 -0.150974
			-0.047515 -0.194922 -0.147900
			-0.049745 -0.191249 -0.149413
			-0.050221 -0.189338 -0.150611
			-0.049520 -0.192355 -0.148638
			-0.050524 -0.186389 -0.152261
			-0.044595 -0.190856 -0.152111
			-0.043401 -0.190741 -0.152803
			-0.035306 -0.190305 -0.155350
			-0.033715 -0.200881 -0.153912
			-0.036633 -0.202517 -0.151729
			-0.046057 -0.196248 -0.147822
			-0.038765 -0.188601 -0.155068
			-0.049680 -0.187021 -0.146033
			-0.048914 -0.193606 -0.148392
			-0.052994 -0.188757 -0.147869
			-0.049890 -0.192449 -0.147892
			-0.051083 -0.186699 -0.151406
			-0.047954 -0.184896 -0.154862
			-0.054651 -0.186683 -0.146798
			-0.056890 -0.180161 -0.151909
			-0.049953 -0.176488 -0.157029
			-0.045879 -0.181377 -0.156996
			-0.048902 -0.185429 -0.154150
			-0.049888 -0.185984 -0.152962
			-0.045876 -0.182443 -0.156737
			-0.037740 -0.188066 -0.155660
			-0.032081 -0.185944 -0.154513
			-0.021616 -0.195418 -0.154840
			-0.022241 -0.184740 -0.154290
			-0.021464 -0.206818 -0.152221
			-0.043449 -0.195116 -0.147742
			-0.038457 -0.192949 -0.147587
			-0.034112 -0.201506 -0.151140
			-0.047890 -0.186207 -0.145462
			-0.050970 -0.185342 -0.145348
			-0.059284 -0.182342 -0.144466
			-0.064004 -0.177840 -0.143732
			-0.059154 -0.173853 -0.156138
			-0.043623 -0.174225 -0.154923
			-0.054572 -0.171602 -0.158427
			-0.046261 -0.168716 -0.155140
			-0.045268 -0.181936 -0.157002
			-0.038510 -0.178752 -0.154492
			-0.041165 -0.181738 -0.155954
			-0.038492 -0.182442 -0.155500
			-0.022625 -0.182174 -0.153795
			-0.014730 -0.192777 -0.152482
			-0.017222 -0.204774 -0.153338
			-0.020044 -0.183954 -0.153187
			-0.024608 -0.197693 -0.148917
			-0.018151 -0.205613 -0.150683
			-0.006585 -0.212713 -0.143672
			-0.036109 -0.185701 -0.146778
			-0.035035 -0.181290 -0.141556
			-0.025065 -0.187863 -0.142685
			-0.031111 -0.179655 -0.140791
			-0.044464 -0.184850 -0.145709
			-0.042890 -0.184903 -0.144777
			-0.044998 -0.176892 -0.141851
			-0.050121 -0.172548 -0.141171
			-0.063448 -0.178117 -0.140595
			-0.067388 -0.173806 -0.136681
			-0.065492 -0.170667 -0.151362
			-0.061073 -0.167517 -0.159663
			-0.026217 -0.167698 -0.151037
			-0.031394 -0.163189 -0.151523
			-0.054883 -0.164995 -0.159533
			-0.050031 -0.163628 -0.155635
			-0.036685 -0.158571 -0.152976
			-0.038726 -0.180748 -0.155400
			-0.034065 -0.177738 -0.155094
			-0.034685 -0.179162 -0.154294
			-0.021833 -0.172297 -0.152019
			-0.032153 -0.179434 -0.154164
			-0.020933 -0.181614 -0.152957
			-0.019753 -0.181168 -0.152104
			-0.016344 -0.182631 -0.151330
			-0.010236 -0.192004 -0.145084
			-0.011576 -0.202686 -0.150925
			-0.004481 -0.211508 -0.145403
			-0.014246 -0.194197 -0.142420
			-0.014444 -0.204264 -0.148960
			-0.007261 -0.202668 -0.139358
			-0.002209 -0.211657 -0.138341
			 0.000393 -0.221151 -0.140834
			-0.043301 -0.184340 -0.145699
			-0.033518 -0.178836 -0.141208
			-0.021348 -0.186150 -0.143190
			-0.024965 -0.182245 -0.141924
			-0.022562 -0.182989 -0.142508
			-0.024871 -0.176976 -0.141209
			-0.026049 -0.169663 -0.138381
			-0.040363 -0.169071 -0.137858
			-0.044208 -0.164308 -0.136520
			-0.055003 -0.168278 -0.139418
			-0.064746 -0.172760 -0.136435
			-0.066001 -0.167442 -0.131931
			-0.071722 -0.169420 -0.134251
			-0.070277 -0.166403 -0.149327
			-0.070378 -0.169365 -0.131160
			-0.065817 -0.162899 -0.159720
			-0.059765 -0.160234 -0.160832
			-0.018462 -0.166719 -0.137307
			-0.022945 -0.161711 -0.139127
			-0.025795 -0.156218 -0.139783
			-0.053260 -0.158540 -0.154746
			-0.041548 -0.154190 -0.151864
			-0.029104 -0.150946 -0.140240
			-0.018066 -0.180668 -0.151514
			-0.014955 -0.171636 -0.138732
			-0.019202 -0.175233 -0.149699
			-0.017583 -0.173504 -0.145399
			-0.012349 -0.182179 -0.143308
			-0.018471 -0.175186 -0.149209
			-0.005392 -0.201592 -0.140935
			-0.006371 -0.191339 -0.138722
			-0.000196 -0.210461 -0.140262
			-0.014330 -0.183740 -0.139046
			-0.007855 -0.192314 -0.136732
			-0.005756 -0.202334 -0.137345
			-0.001338 -0.200848 -0.134548
			 0.002387 -0.210273 -0.134432
			 0.004649 -0.220032 -0.136211
			 0.005844 -0.219300 -0.137488
			 0.006723 -0.229721 -0.138938
			-0.024657 -0.175216 -0.141077
			-0.031419 -0.180284 -0.141300
			-0.024146 -0.178864 -0.141617
			-0.024090 -0.181788 -0.142035
			-0.016596 -0.182286 -0.139511
			-0.023404 -0.176933 -0.140786
			-0.016367 -0.174023 -0.136394
			-0.019244 -0.167478 -0.134587
			-0.022362 -0.162016 -0.135733
			-0.029030 -0.164334 -0.138356
			-0.033439 -0.159691 -0.137712
			-0.049308 -0.160437 -0.132845
			-0.037250 -0.154683 -0.137811
			-0.061977 -0.165237 -0.135363
			-0.064125 -0.160052 -0.132313
			-0.073249 -0.164861 -0.125716
			-0.075685 -0.165600 -0.127345
			-0.076847 -0.164399 -0.137791
			-0.073412 -0.160566 -0.152854
			-0.067733 -0.156942 -0.160880
			-0.054836 -0.152496 -0.155573
			-0.063027 -0.154813 -0.162094
			-0.015346 -0.172348 -0.135125
			-0.025310 -0.156552 -0.136467
			-0.028909 -0.151334 -0.137328
			-0.047284 -0.149768 -0.153236
			-0.040710 -0.148268 -0.145767
			-0.032312 -0.145968 -0.138612
			-0.012652 -0.177161 -0.139820
			-0.016231 -0.172002 -0.141624
			-0.010676 -0.179683 -0.138754
			-0.019776 -0.173438 -0.149226
			-0.014817 -0.175808 -0.142177
			-0.013478 -0.180056 -0.143592
			-0.013080 -0.180034 -0.142711
			-0.009596 -0.181695 -0.138837
			-0.013547 -0.180572 -0.144264
			-0.019234 -0.173289 -0.148573
			-0.000544 -0.200244 -0.136123
			-0.009582 -0.182110 -0.136244
			-0.003585 -0.190670 -0.135306
			 0.003432 -0.209574 -0.135909
			-0.011009 -0.180291 -0.136234
			-0.006720 -0.191979 -0.135722
			 0.000733 -0.200151 -0.133237
			 0.005315 -0.209391 -0.131942
			 0.009004 -0.218888 -0.131476
			 0.010987 -0.228656 -0.133959
			 0.012214 -0.227922 -0.135167
			 0.010254 -0.218113 -0.132868
			-0.014401 -0.175968 -0.136210
			-0.053894 -0.156191 -0.130180
			-0.056785 -0.151252 -0.127499
			-0.068509 -0.156005 -0.127897
			-0.079500 -0.161953 -0.118985
			-0.082949 -0.163183 -0.120149
			-0.083624 -0.162313 -0.127288
			-0.075461 -0.154734 -0.153570
			-0.069323 -0.150793 -0.162401
			-0.058338 -0.146976 -0.158065
			-0.063127 -0.148116 -0.163213
			-0.011057 -0.179951 -0.138059
			-0.012900 -0.177877 -0.136248
			-0.036584 -0.140709 -0.141443
			-0.037510 -0.141565 -0.138489
			-0.011474 -0.179789 -0.140131
			-0.016236 -0.172994 -0.142385
			 0.006272 -0.208752 -0.133295
			 0.006797 -0.208945 -0.130683
			 0.012702 -0.217455 -0.130303
			 0.012222 -0.228348 -0.132514
			 0.013408 -0.227570 -0.134104
			-0.056841 -0.144894 -0.126402
			-0.074500 -0.152761 -0.122601
			-0.083082 -0.158287 -0.110158
			-0.089476 -0.160739 -0.111250
			-0.089949 -0.159496 -0.120185
			-0.086134 -0.159881 -0.108038
			-0.084607 -0.154332 -0.138658
			-0.075177 -0.147263 -0.158524
			-0.069132 -0.143921 -0.163864
			-0.060157 -0.141361 -0.156844
			-0.052777 -0.138942 -0.153030
			-0.064657 -0.142102 -0.163746
			-0.040835 -0.135733 -0.142467
			-0.040982 -0.136347 -0.139026
			 0.018470 -0.226078 -0.129596
			-0.047970 -0.133087 -0.136375
			-0.060199 -0.140063 -0.124234
			-0.072951 -0.145917 -0.120421
			-0.079325 -0.149048 -0.117229
			-0.086662 -0.154537 -0.101834
			-0.095492 -0.156707 -0.110907
			-0.094330 -0.157373 -0.103791
			-0.091111 -0.151754 -0.130521
			-0.090497 -0.156521 -0.099297
			-0.079201 -0.142861 -0.155403
			-0.071658 -0.138318 -0.164378
			-0.068056 -0.136742 -0.164976
			-0.059974 -0.135165 -0.154126
			-0.047921 -0.131476 -0.146266
			-0.045137 -0.130825 -0.143201
			-0.061131 -0.133620 -0.125901
			-0.051699 -0.127685 -0.138715
			-0.086162 -0.146454 -0.110049
			-0.090194 -0.149292 -0.102692
			-0.097614 -0.150117 -0.116533
			-0.100821 -0.154259 -0.098959
			-0.085807 -0.140213 -0.147961
			-0.092201 -0.152156 -0.090016
			-0.094013 -0.153302 -0.087516
			-0.097692 -0.154526 -0.089301
			-0.080320 -0.136243 -0.158630
			-0.073869 -0.132385 -0.166142
			-0.069518 -0.130660 -0.165751
			-0.063862 -0.129829 -0.156464
			-0.049444 -0.125670 -0.145479
			-0.053848 -0.121474 -0.142049
			-0.068956 -0.131247 -0.119871
			-0.090427 -0.142556 -0.104396
			-0.094056 -0.145346 -0.096325
			-0.091905 -0.137450 -0.139940
			-0.101694 -0.146002 -0.111757
			-0.105178 -0.150819 -0.090700
			-0.079251 -0.128262 -0.164750
			-0.094299 -0.147867 -0.081262
			-0.097166 -0.149466 -0.078642
			-0.102659 -0.151399 -0.080651
			-0.076753 -0.126926 -0.166676
			-0.072343 -0.125148 -0.166469
			-0.065706 -0.123756 -0.158163
			-0.053602 -0.120677 -0.146377
			-0.057501 -0.116235 -0.143178
			-0.072651 -0.126500 -0.118046
			-0.088476 -0.135166 -0.104586
			-0.094408 -0.139769 -0.091112
			-0.103988 -0.139958 -0.114426
			-0.093029 -0.130582 -0.144741
			-0.109669 -0.146987 -0.085224
			-0.080999 -0.122401 -0.164881
			-0.099398 -0.145590 -0.067666
			-0.103403 -0.147137 -0.068277
			-0.108682 -0.148551 -0.072972
			-0.077563 -0.120590 -0.167360
			-0.072393 -0.118635 -0.166316
			-0.060710 -0.116527 -0.149567
			-0.063522 -0.111731 -0.145788
			-0.065154 -0.114221 -0.134472
			-0.080075 -0.124443 -0.109028
			-0.093804 -0.132193 -0.095907
			-0.099225 -0.136746 -0.081441
			-0.099260 -0.128099 -0.135320
			-0.109863 -0.138274 -0.099125
			-0.086690 -0.118956 -0.160070
			-0.113097 -0.143008 -0.077943
			-0.080317 -0.115339 -0.166273
			-0.099739 -0.139496 -0.065647
			-0.101452 -0.140538 -0.063543
			-0.110875 -0.143775 -0.067492
			-0.107005 -0.142833 -0.063456
			-0.077264 -0.113903 -0.167406
			-0.071842 -0.111907 -0.165958
			-0.066751 -0.110948 -0.158917
			-0.068349 -0.100034 -0.149301
			-0.071138 -0.104196 -0.130544
			-0.076889 -0.108627 -0.117682
			-0.096238 -0.119663 -0.098485
			-0.103848 -0.124551 -0.087531
			-0.105917 -0.127074 -0.077118
			-0.114656 -0.126567 -0.102616
			-0.103033 -0.116069 -0.138203
			-0.118196 -0.131283 -0.082318
			-0.092046 -0.108443 -0.157561
			-0.088914 -0.106627 -0.160853
			-0.116510 -0.133106 -0.066671
			-0.078855 -0.101482 -0.167142
			-0.103265 -0.128897 -0.059002
			-0.108824 -0.131633 -0.056195
			-0.112599 -0.132968 -0.057532
			-0.070884 -0.098990 -0.162275
			-0.074055 -0.099573 -0.166748
			-0.077442 -0.094727 -0.123969
			-0.073650 -0.087450 -0.159540
			-0.081391 -0.098333 -0.111626
			-0.107839 -0.113192 -0.086794
			-0.110278 -0.116140 -0.074691
			-0.114910 -0.110911 -0.119060
			-0.121438 -0.117867 -0.092477
			-0.104163 -0.102645 -0.143009
			-0.122236 -0.121554 -0.071578
			-0.093431 -0.096047 -0.156623
			-0.117535 -0.122491 -0.053736
			-0.081015 -0.089802 -0.163728
			-0.107855 -0.118328 -0.054892
			-0.109240 -0.119352 -0.052058
			-0.114721 -0.121737 -0.051236
			-0.077100 -0.088219 -0.163572
			-0.075015 -0.075376 -0.156549
			-0.081392 -0.084480 -0.116217
			-0.076399 -0.075323 -0.160416
			-0.085551 -0.087577 -0.107582
			-0.106027 -0.098755 -0.090379
			-0.113693 -0.103807 -0.078551