<?xml version="1.0"?>
<VTKFile type="PolyData" version="0.1" byte_order="LittleEndian" compressor="vtkZLibDataCompressor">
	<PolyData>
		<Piece NumberOfPoints="294" NumberOfVerts="0" NumberOfLines="0" NumberOfStrips="0" NumberOfPolys="579">
		<PointData Normals="Normals">
		<DataArray type="Float32" Name="Normals" NumberOfComponents="3" format="ascii">
			-0.868390 -0.455386  0.196271
			-0.918888 -0.393559  0.027511
			-0.757553 -0.336478  0.559370
			-0.503145 -0.614840  0.607304
			-0.776896 -0.516575  0.359977
			-0.864569 -0.494146 -0.091322
			-0.873686 -0.464888  0.143361
			-0.913333 -0.397718  0.087425
			-0.900572 -0.354393  0.251745
			-0.885298 -0.426217 -0.185974
			-0.908574 -0.386778 -0.157782
			-0.911394 -0.376729 -0.165640
			-0.952787 -0.283776 -0.108014
			-0.287563 -0.487287  0.824536
			 0.547792  0.298698  0.781475
			-0.630122 -0.343637  0.696319
			 0.571601 -0.107961  0.813398
			-0.318850 -0.292453  0.901558
			-0.520976 -0.300670  0.798863
			-0.826982 -0.534749  0.173620
			-0.818305 -0.507629 -0.269611
			-0.852854 -0.437109 -0.285613
			-0.865361 -0.451051 -0.218412
			-0.689639 -0.460659  0.558741
			-0.906221 -0.391679 -0.159219
			-0.908868 -0.411105  0.070366
			-0.917831 -0.361936 -0.163058
			-0.939791 -0.261298 -0.220262
			-0.083235  0.096974 -0.991800
			-0.554860 -0.191376 -0.809633
			-0.954019 -0.279843 -0.107405
			-0.921969 -0.340598 -0.184297
			 0.718097  0.244003  0.651767
			 0.876778  0.420150  0.233955
			 0.884281  0.421312  0.201353
			 0.944724  0.322360  0.059847
			 0.905582  0.419278  0.064246
			 0.251833 -0.146325  0.956645
			 0.906539  0.413610  0.084346
			 0.909691  0.390699  0.140771
			 0.696550  0.260457  0.668566
			 0.914755  0.392505  0.095720
			 0.510326  0.280815  0.812841
			-0.055084  0.021883  0.998242
			-0.679509 -0.361433  0.638462
			-0.866762 -0.497485  0.035096
			-0.835617 -0.413841 -0.361221
			-0.814870 -0.465489 -0.345408
			-0.882201 -0.387831 -0.267037
			-0.874577 -0.408829 -0.260717
			-0.649689 -0.544888  0.530095
			 0.676346  0.079988  0.732228
			-0.917856 -0.355777 -0.175965
			-0.894051 -0.447767  0.013333
			-0.924610 -0.309020 -0.222719
			-0.980549  0.073985 -0.181794
			-0.546790 -0.051180 -0.835704
			-0.933855 -0.305262 -0.186359
			 0.748178  0.453916 -0.483931
			 0.787985  0.460806 -0.408335
			 0.658995  0.369355 -0.655212
			 0.525593  0.332823 -0.782931
			-0.360098 -0.047715 -0.931694
			 0.914357  0.383328  0.130430
			 0.829505  0.501242  0.246330
			 0.878604  0.464421  0.111211
			 0.863535  0.370013  0.342635
			 0.875301  0.321753  0.361002
			 0.990975 -0.027012  0.131299
			 0.993528  0.107269  0.037352
			 0.877676  0.466881  0.108196
			 0.846889  0.479187  0.230563
			 0.820201  0.568963  0.059596
			 0.747132  0.458961  0.480780
			-0.062431 -0.006308  0.998029
			-0.751075 -0.344411  0.563265
			-0.865938 -0.500059  0.009629
			-0.106240  0.173250 -0.979131
			 0.069409  0.159809 -0.984705
			-0.794442 -0.457564 -0.399371
			 0.061988  0.208341 -0.976090
			-0.806526 -0.471815 -0.356241
			-0.978367  0.058230 -0.198513
			-0.971921  0.183842 -0.146871
			 0.286374 -0.314620  0.904988
			-0.617935 -0.562307  0.549515
			 0.858380  0.418402  0.296856
			 0.905886  0.361297  0.220986
			-0.898536 -0.438886  0.003570
			-0.741818 -0.253565 -0.620815
			 0.199511  0.704350 -0.681239
			 0.758622  0.573764 -0.308689
			 0.844951  0.518634 -0.130676
			 0.732499  0.677086  0.070712
			 0.778057  0.602271 -0.178598
			 0.884160  0.456705 -0.098396
			 0.763058  0.416600 -0.494154
			 0.718718  0.457693 -0.523414
			 0.300712  0.269152 -0.914948
			 0.816732  0.577016  0.001323
			 0.671198  0.548954  0.498139
			 0.832721  0.543588  0.105295
			 0.836652  0.430188  0.339047
			 0.858055  0.512702  0.029616
			 0.651512  0.594094  0.471789
			 0.863027  0.503704 -0.038297
			 0.854316  0.497987  0.148836
			 0.866618  0.498580  0.019776
			 0.823109  0.428507  0.372656
			-0.021134 -0.010297  0.999724
			-0.734493 -0.369238  0.569371
			-0.876068 -0.481697 -0.021742
			-0.797249 -0.455920 -0.395641
			 0.056903  0.223634 -0.973011
			 0.803252  0.595640 -0.000564
			 0.849175  0.526796  0.037248
			-0.803787 -0.452364 -0.386384
			 0.616761 -0.233416  0.751746
			-0.584328 -0.555910  0.591206
			 0.905959  0.420109  0.052409
			 0.871282  0.339492  0.354419
			-0.902932 -0.427160 -0.047417
			-0.080581  0.075577 -0.993879
			-0.721436 -0.321783 -0.613177
			 0.715441  0.639203  0.282068
			 0.771394  0.636144 -0.016476
			 0.657814  0.543239 -0.521700
			 0.863229  0.481650 -0.151162
			 0.600907  0.383082 -0.701540
			 0.818808  0.426864 -0.383850
			 0.834874  0.549099  0.038412
			 0.826256  0.536300 -0.172289
			 0.851519  0.412180  0.324072
			 0.762163  0.394741  0.513115
			-0.377716 -0.162444  0.911561
			-0.824292 -0.385046  0.415068
			-0.862899 -0.455535 -0.218847
			 0.073601  0.300036 -0.951085
			 0.815884  0.576223  0.047966
			-0.787995 -0.476430 -0.389973
			 0.223038 -0.578026  0.784946
			 0.837847 -0.139657  0.527739
			-0.640433 -0.565415  0.519760
			 0.893797  0.441492  0.078809
			 0.868914  0.390735  0.303832
			-0.923865 -0.382582 -0.010241
			-0.636189 -0.294151 -0.713259
			 0.418840  0.271987 -0.866369
			 0.823459  0.413295 -0.388719
			 0.826713  0.520560 -0.213454
			 0.850232  0.482033  0.211542
			 0.030575  0.066501  0.997318
			-0.678442 -0.304148  0.668738
			-0.893209 -0.432999  0.121203
			-0.845266 -0.458260 -0.274814
			 0.048658  0.358581 -0.932230
			 0.812070  0.576806  0.088533
			-0.812015 -0.446669 -0.375658
			 0.052140  0.446318 -0.893354
			-0.111022 -0.658282  0.744539
			 0.787694  0.022200  0.615667
			 0.891212  0.453585  0.000641
			-0.827959 -0.373273 -0.418511
			-0.944124 -0.326731  0.043321
			 0.010895  0.113100 -0.993524
			 0.757795  0.435703 -0.485706
			 0.814570  0.576392 -0.065170
			 0.767580  0.454713 -0.451726
			 0.875580  0.480239  0.052260
			-0.021981  0.040257  0.998947
			-0.764349 -0.338110  0.549047
			-0.908776 -0.417018 -0.014878
			-0.114752  0.473093 -0.873507
			 0.801512  0.585456  0.121732
			 0.465696 -0.299119  0.832859
			-0.647554 -0.589992  0.482268
			 0.833995  0.301067  0.462397
			 0.766223  0.495664 -0.408925
			-0.915125 -0.349939 -0.200223
			-0.749818 -0.296024 -0.591728
			 0.134244  0.274878 -0.952061
			 0.763417  0.511270 -0.394711
			 0.725314  0.400955 -0.559602
			-0.193837  0.578955  0.791984
			 0.607925  0.765206 -0.211865
			-0.888235  0.212894  0.407081
			-0.503732  0.738799 -0.447695
			-0.005507 -0.722971  0.690857
			 0.585342 -0.132101  0.799952
			-0.811577 -0.558609  0.171168
			 0.909388  0.366256  0.197154
			 0.624174  0.408748 -0.665831
			 0.815668  0.453745 -0.358889
			-0.836390 -0.389826 -0.385340
			-0.256872 -0.007764 -0.966414
			 0.171944  0.932297 -0.318210
			 0.056019 -0.574830  0.816353
			 0.728376  0.041871  0.683897
			-0.829349 -0.543856  0.128065
			 0.924437  0.380387 -0.026870
			 0.802440  0.437395 -0.405926
			 0.476113  0.367630 -0.798852
			-0.618423 -0.154485 -0.770511
			-0.070418 -0.590887  0.803675
			 0.459141 -0.248435  0.852918
			 0.930599  0.254493  0.263093
			-0.699505 -0.592272  0.399884
			-0.889487 -0.170627 -0.423909
			 0.766337  0.434268 -0.473434
			 0.083760  0.302808 -0.949364
			-0.003389 -0.503196  0.864165
			 0.555327 -0.168465  0.814390
			 0.948559  0.239508  0.207057
			-0.761201 -0.597257  0.252699
			-0.688625 -0.042848 -0.723851
			 0.742826  0.427924 -0.514870
			 0.416067  0.379420 -0.826395
			 0.488918 -0.256265  0.833839
			-0.105691 -0.523232  0.845611
			 0.958220  0.277685  0.068597
			-0.877848 -0.478812  0.011052
			-0.173862  0.157322 -0.972122
			 0.731918  0.421629 -0.535280
			 0.957536  0.137751  0.253278
			 0.321123 -0.335920  0.885459
			-0.501440 -0.513911  0.696027
			-0.864631 -0.224424 -0.449496
			 0.739803  0.393312 -0.545891
			 0.059144  0.241736 -0.968538
			 0.941269  0.104833  0.320970
			 0.261786 -0.284206  0.922331
			-0.787556 -0.344717  0.510808
			-0.657225 -0.047876 -0.752173
			 0.774912  0.309514 -0.551101
			 0.431966  0.206873 -0.877843
			 0.906081  0.036810  0.421500
			 0.162193 -0.304562  0.938582
			-0.966092 -0.257750  0.015212
			 0.007713  0.133657 -0.990998
			 0.741814  0.254603 -0.620394
			 0.354079 -0.241991  0.903365
			 0.980681  0.183128  0.068761
			-0.781035 -0.231180  0.580120
			-0.246231  0.237570 -0.939644
			 0.724958  0.275125 -0.631460
			 0.859715 -0.101303  0.500628
			-0.104600 -0.306946  0.945961
			-0.992417 -0.122916  0.000216
			-0.210314  0.278381 -0.937162
			 0.759460  0.245304 -0.602534
			 0.974560  0.033474  0.221615
			 0.158635 -0.252332  0.954549
			-0.837641 -0.351013  0.418507
			-0.319141  0.037607 -0.946961
			 0.792222  0.212452 -0.572056
			 0.876006 -0.051152  0.479580
			-0.062115 -0.293410  0.953967
			-0.999537  0.022279 -0.020743
			-0.783754  0.080546 -0.615826
			 0.771633  0.258404 -0.581214
			-0.258936  0.043421 -0.964918
			 0.469088 -0.273189  0.839836
			 0.982255  0.120780 -0.143484
			-0.313872 -0.305682  0.898912
			-0.556250  0.279370 -0.782649
			-0.986426  0.064599 -0.150964
			-0.059140  0.202029 -0.977592
			 0.343522 -0.306036  0.887882
			 0.999958  0.004876 -0.007700
			-0.354851 -0.265180  0.896527
			-0.588899  0.004786 -0.808192
			-0.963359 -0.037118 -0.265633
			 0.193684  0.090907 -0.976843
			 0.249208 -0.310809  0.917220
			 0.995073 -0.084765  0.051431
			-0.435418 -0.391692  0.810548
			-0.512223 -0.008928 -0.858806
			-0.025860 -0.046274 -0.998594
			-0.798790 -0.142850 -0.584404
			-0.113712 -0.358306  0.926653
			 0.318402 -0.301069  0.898876
			 0.985192 -0.159305  0.063391
			-0.713861 -0.477965  0.511813
			-0.006966  0.013056 -0.999891
			-0.362579  0.100403 -0.926529
			-0.629507 -0.217573 -0.745911
			-0.941717 -0.335882  0.018753
			 0.287573 -0.375477  0.881090
			 0.984746 -0.162296  0.062729
			 0.156448  0.229878 -0.960562
			-0.225094 -0.964782 -0.136117
			 0.277548 -0.775463  0.567119
			 0.233219 -0.415814 -0.879038
			 0.919036 -0.393275 -0.026604
		</DataArray>
	</PointData>
	<Points>
		<DataArray type="Float32" NumberOfComponents="3" format="ascii">
			 0.064631 -0.326558 -0.133957
			 0.064746 -0.328619 -0.137478
			 0.066853 -0.328877 -0.129077
			 0.066199 -0.326673 -0.128597
			 0.059747 -0.318526 -0.128626
			 0.059244 -0.317166 -0.138366
			 0.064086 -0.326510 -0.135721
			 0.067155 -0.334229 -0.137092
			 0.062323 -0.323321 -0.135803
			 0.062740 -0.322418 -0.140647
			 0.064009 -0.323500 -0.143783
			 0.067411 -0.332313 -0.149425
			 0.065374 -0.326843 -0.147678
			 0.067310 -0.326302 -0.128281
			 0.070486 -0.327580 -0.126546
			 0.069525 -0.334370 -0.128667
			 0.069478 -0.325593 -0.126783
			 0.062484 -0.317770 -0.125910
			 0.056957 -0.309197 -0.125618
			 0.053797 -0.309696 -0.131096
			 0.054116 -0.307862 -0.141533
			 0.060432 -0.315599 -0.144810
			 0.061213 -0.319571 -0.141200
			 0.071430 -0.339908 -0.130362
			 0.070140 -0.338193 -0.146176
			 0.069289 -0.339749 -0.138180
			 0.064039 -0.323023 -0.145267
			 0.065699 -0.325921 -0.152974
			 0.070297 -0.329136 -0.162124
			 0.071863 -0.335039 -0.162383
			 0.065566 -0.326298 -0.150805
			 0.063871 -0.322037 -0.146252
			 0.073200 -0.332997 -0.126531
			 0.072812 -0.331872 -0.135456
			 0.070291 -0.326203 -0.136601
			 0.069482 -0.324764 -0.131880
			 0.069535 -0.325076 -0.129819
			 0.075468 -0.338458 -0.127612
			 0.067842 -0.321985 -0.127035
			 0.067933 -0.321639 -0.129655
			 0.065144 -0.316667 -0.125475
			 0.068964 -0.323667 -0.130757
			 0.060528 -0.307750 -0.124874
			 0.054911 -0.299156 -0.124990
			 0.049324 -0.301020 -0.128623
			 0.047507 -0.301092 -0.133100
			 0.058361 -0.303824 -0.154935
			 0.049704 -0.298490 -0.143185
			 0.062131 -0.313358 -0.154021
			 0.062243 -0.318989 -0.145569
			 0.073839 -0.345174 -0.132336
			 0.077828 -0.343769 -0.129430
			 0.073894 -0.341148 -0.159768
			 0.071631 -0.344966 -0.140712
			 0.064069 -0.320555 -0.149236
			 0.064754 -0.319557 -0.153924
			 0.068030 -0.323632 -0.161341
			 0.063746 -0.321302 -0.146985
			 0.070515 -0.322836 -0.158980
			 0.075479 -0.327722 -0.155531
			 0.076159 -0.333438 -0.159857
			 0.077660 -0.339231 -0.161062
			 0.074252 -0.340543 -0.162784
			 0.075115 -0.337728 -0.133722
			 0.073631 -0.323325 -0.145832
			 0.077036 -0.327960 -0.148992
			 0.078398 -0.334634 -0.144605
			 0.071236 -0.322335 -0.142108
			 0.069238 -0.324118 -0.136527
			 0.069455 -0.324603 -0.132951
			 0.066809 -0.313153 -0.142971
			 0.069491 -0.317225 -0.147429
			 0.060500 -0.305129 -0.141102
			 0.056184 -0.298447 -0.125915
			 0.049739 -0.290339 -0.125277
			 0.044530 -0.291973 -0.129301
			 0.042800 -0.291804 -0.135028
			 0.063404 -0.311843 -0.159915
			 0.059603 -0.302642 -0.158856
			 0.052667 -0.295719 -0.152246
			 0.054437 -0.294063 -0.157662
			 0.044172 -0.290022 -0.142293
			 0.065289 -0.318995 -0.156095
			 0.065709 -0.318478 -0.158317
			 0.080500 -0.348852 -0.131831
			 0.076660 -0.350231 -0.134448
			 0.077827 -0.342536 -0.137884
			 0.080863 -0.348020 -0.136388
			 0.074263 -0.349948 -0.143929
			 0.076281 -0.346283 -0.162711
			 0.066126 -0.317945 -0.160664
			 0.068109 -0.320159 -0.159857
			 0.070276 -0.319144 -0.155497
			 0.071328 -0.320642 -0.154905
			 0.073274 -0.322414 -0.153196
			 0.079674 -0.332948 -0.152156
			 0.079684 -0.338665 -0.158582
			 0.082518 -0.343963 -0.158996
			 0.079030 -0.344992 -0.162912
			 0.072004 -0.320906 -0.148185
			 0.072010 -0.321584 -0.144640
			 0.072262 -0.321254 -0.145989
			 0.081427 -0.339695 -0.146036
			 0.067058 -0.313814 -0.152535
			 0.070996 -0.319381 -0.145276
			 0.060479 -0.303041 -0.154027
			 0.054710 -0.296423 -0.142379
			 0.054272 -0.297508 -0.136877
			 0.051654 -0.289324 -0.126349
			 0.045761 -0.281063 -0.125163
			 0.039212 -0.282988 -0.131019
			 0.037242 -0.283224 -0.134896
			 0.047527 -0.286876 -0.152601
			 0.048663 -0.285812 -0.156092
			 0.049302 -0.286223 -0.151824
			 0.055400 -0.294714 -0.151044
			 0.041154 -0.279436 -0.147655
			 0.082753 -0.354040 -0.134759
			 0.079017 -0.355512 -0.136481
			 0.085458 -0.343508 -0.152869
			 0.082744 -0.353092 -0.141354
			 0.076741 -0.354903 -0.147816
			 0.080368 -0.350981 -0.163704
			 0.078563 -0.351892 -0.162730
			 0.069247 -0.319908 -0.154130
			 0.068965 -0.317084 -0.149133
			 0.064450 -0.312076 -0.153556
			 0.082425 -0.338301 -0.152466
			 0.083970 -0.349505 -0.162097
			 0.085865 -0.349123 -0.158751
			 0.050161 -0.287355 -0.142522
			 0.044126 -0.280202 -0.134890
			 0.047342 -0.280174 -0.126362
			 0.042641 -0.271328 -0.125557
			 0.041100 -0.272065 -0.125184
			 0.033761 -0.274060 -0.132746
			 0.033064 -0.273424 -0.138555
			 0.043249 -0.277407 -0.154488
			 0.042607 -0.278896 -0.147049
			 0.036186 -0.270477 -0.148266
			 0.083227 -0.359258 -0.138429
			 0.084750 -0.359078 -0.139658
			 0.080710 -0.360958 -0.139476
			 0.088188 -0.349165 -0.151155
			 0.090647 -0.354714 -0.151038
			 0.079212 -0.360581 -0.146772
			 0.082059 -0.356761 -0.164000
			 0.084689 -0.355529 -0.164183
			 0.088581 -0.354539 -0.158736
			 0.038561 -0.271369 -0.136342
			 0.038459 -0.261943 -0.126660
			 0.037273 -0.262626 -0.125661
			 0.031422 -0.264497 -0.129969
			 0.028407 -0.264799 -0.136265
			 0.029436 -0.263257 -0.142984
			 0.037600 -0.269142 -0.152665
			 0.037599 -0.269956 -0.147653
			 0.029938 -0.262504 -0.146263
			 0.031202 -0.261508 -0.148979
			 0.081727 -0.363507 -0.141623
			 0.090295 -0.358528 -0.148820
			 0.092146 -0.357146 -0.152477
			 0.082947 -0.359958 -0.162122
			 0.080189 -0.363570 -0.146030
			 0.085189 -0.358527 -0.164877
			 0.089918 -0.357272 -0.158612
			 0.031041 -0.262616 -0.142590
			 0.034032 -0.262826 -0.133202
			 0.033761 -0.252891 -0.127117
			 0.032457 -0.253678 -0.125792
			 0.025828 -0.255594 -0.131925
			 0.023821 -0.255491 -0.137993
			 0.025306 -0.253755 -0.144671
			 0.031130 -0.262000 -0.146145
			 0.083525 -0.365736 -0.143517
			 0.082012 -0.366384 -0.143832
			 0.093279 -0.360100 -0.151483
			 0.091174 -0.359828 -0.159966
			 0.081487 -0.365521 -0.151401
			 0.084963 -0.362180 -0.163373
			 0.087151 -0.360899 -0.165275
			 0.026944 -0.254229 -0.137315
			 0.028983 -0.253829 -0.134265
			 0.027885 -0.244565 -0.126283
			 0.028415 -0.244056 -0.127982
			 0.021083 -0.246462 -0.132995
			 0.020048 -0.246158 -0.137668
			 0.083290 -0.368829 -0.145874
			 0.091342 -0.364707 -0.148816
			 0.082121 -0.369047 -0.148054
			 0.094632 -0.362687 -0.152319
			 0.090393 -0.362959 -0.163783
			 0.091968 -0.362608 -0.161240
			 0.084945 -0.366005 -0.160027
			 0.087404 -0.364053 -0.165680
			 0.023439 -0.245229 -0.134219
			 0.084885 -0.371053 -0.148438
			 0.094983 -0.365998 -0.151344
			 0.083394 -0.371554 -0.149698
			 0.095637 -0.365331 -0.153856
			 0.093418 -0.365225 -0.161558
			 0.090809 -0.365908 -0.165081
			 0.088612 -0.366822 -0.165727
			 0.087861 -0.375841 -0.151909
			 0.095968 -0.372022 -0.152594
			 0.097753 -0.370899 -0.154684
			 0.085274 -0.376763 -0.153722
			 0.087638 -0.374652 -0.160763
			 0.095653 -0.370626 -0.163154
			 0.091600 -0.371848 -0.167521
			 0.090509 -0.380818 -0.155110
			 0.097984 -0.377370 -0.155244
			 0.100386 -0.375891 -0.157829
			 0.088119 -0.381707 -0.156532
			 0.092344 -0.377974 -0.168838
			 0.096919 -0.376384 -0.165348
			 0.094469 -0.377057 -0.168444
			 0.099702 -0.382921 -0.157439
			 0.093487 -0.385669 -0.158139
			 0.102062 -0.381484 -0.159863
			 0.090816 -0.386639 -0.159889
			 0.094720 -0.383268 -0.170721
			 0.099513 -0.381674 -0.166577
			 0.103701 -0.386984 -0.162651
			 0.099908 -0.389085 -0.160182
			 0.093924 -0.391651 -0.161404
			 0.096126 -0.389340 -0.170320
			 0.101993 -0.387080 -0.167366
			 0.097322 -0.388555 -0.171948
			 0.105121 -0.392717 -0.164543
			 0.101230 -0.394786 -0.162593
			 0.095132 -0.397469 -0.163373
			 0.098540 -0.394575 -0.172497
			 0.103259 -0.392839 -0.169560
			 0.100816 -0.393563 -0.172275
			 0.105849 -0.395556 -0.165606
			 0.100562 -0.398298 -0.163445
			 0.095458 -0.400472 -0.164582
			 0.099865 -0.397202 -0.173148
			 0.103405 -0.396022 -0.170106
			 0.104049 -0.399777 -0.165155
			 0.106677 -0.398344 -0.166714
			 0.095862 -0.403494 -0.165424
			 0.100575 -0.400095 -0.173909
			 0.104644 -0.398725 -0.170501
			 0.106688 -0.401629 -0.166991
			 0.097012 -0.406218 -0.165953
			 0.095607 -0.406695 -0.167101
			 0.100640 -0.403239 -0.174966
			 0.104712 -0.401868 -0.171567
			 0.106946 -0.404696 -0.167978
			 0.100626 -0.407782 -0.166696
			 0.096053 -0.409745 -0.167619
			 0.101467 -0.406110 -0.175511
			 0.105482 -0.404797 -0.171886
			 0.107114 -0.411075 -0.169372
			 0.100737 -0.414148 -0.168355
			 0.096321 -0.415774 -0.171089
			 0.101775 -0.413021 -0.172811
			 0.105996 -0.411072 -0.172907
			 0.102654 -0.412075 -0.176534
			 0.105078 -0.415352 -0.169274
			 0.107433 -0.413818 -0.172388
			 0.099072 -0.417984 -0.170113
			 0.100704 -0.416685 -0.173892
			 0.096706 -0.418696 -0.172677
			 0.103719 -0.414886 -0.176735
			 0.104199 -0.418949 -0.170203
			 0.107836 -0.416878 -0.172964
			 0.098729 -0.421331 -0.171073
			 0.102225 -0.419121 -0.175230
			 0.096314 -0.422109 -0.173336
			 0.103993 -0.418015 -0.177255
			 0.104580 -0.421895 -0.171627
			 0.107791 -0.420137 -0.173589
			 0.098070 -0.424756 -0.172486
			 0.103002 -0.422113 -0.175094
			 0.104447 -0.421142 -0.177206
			 0.096933 -0.424925 -0.174900
			 0.102617 -0.425943 -0.172879
			 0.104122 -0.425322 -0.172403
			 0.107524 -0.423487 -0.174286
			 0.098209 -0.427760 -0.174276
			 0.104895 -0.424272 -0.177171
			 0.103090 -0.425405 -0.175077
			 0.098214 -0.427592 -0.175419
			 0.099246 -0.430477 -0.175226
			 0.104448 -0.428325 -0.173612
			 0.106603 -0.427106 -0.175198
			 0.105055 -0.427484 -0.177475
			 0.100251 -0.433164 -0.176465
			 0.103422 -0.431948 -0.174830
			 0.104971 -0.430755 -0.178135
			 0.106154 -0.430419 -0.176720
		</DataArray>
	</Points>
			<Polys>
				<DataArray type="Int32" Name="connectivity" format="ascii">
					0 1 2 
					3 4 0 
					4 5 0 
					1 0 6 
					0 2 3 
					6 0 5 
					2 1 7 
					6 8 1 
					9 10 1 
					11 7 1 
					9 1 8 
					12 11 1 
					10 12 1 
					13 3 2 
					14 2 15 
					15 2 7 
					14 13 2 
					3 16 17 
					17 4 3 
					16 3 13 
					4 17 18 
					5 4 19 
					18 19 4 
					5 19 20 
					21 5 20 
					22 5 21 
					6 5 22 
					9 8 6 
					9 6 22 
					15 7 23 
					24 25 7 
					23 7 25 
					7 11 24 
					10 9 22 
					10 26 12 
					10 22 26 
					11 27 28 
					11 28 29 
					24 11 29 
					12 30 27 11 
					12 26 31 
					12 31 30 
					16 13 14 
					14 32 33 
					33 34 14 
					32 14 15 
					35 14 34 
					36 14 35 
					16 14 36 
					37 15 23 
					32 15 37 
					16 38 39 
					16 39 40 
					16 40 17 
					16 36 41 
					16 41 38 
					42 17 40 
					17 42 18 
					43 18 42 
					43 44 18 
					44 19 18 
					44 45 19 
					20 19 45 
					20 46 21 
					46 20 47 
					45 47 20 
					48 21 46 
					49 21 48 
					22 21 49 
					31 26 22 
					31 22 49 
					23 25 50 
					37 23 51 
					23 50 51 
					24 29 52 
					53 24 52 
					53 25 24 
					50 25 53 
					54 55 27 
					55 56 27 
					28 27 56 
					30 57 27 
					54 27 57 
					56 58 28 
					59 28 58 
					60 29 28 
					28 59 60 
					61 29 60 
					52 29 62 
					29 61 62 
					30 31 57 
					57 31 49 
					37 63 32 
					63 33 32 
					33 64 34 
					64 33 65 
					33 63 66 
					66 65 33 
					67 68 34 
					34 68 69 
					67 34 64 
					35 34 69 
					41 36 35 
					41 35 70 
					35 71 70 
					35 69 71 
					51 63 37 
					41 39 38 
					41 70 39 
					70 40 39 
					42 40 70 
					72 42 70 
					73 43 42 
					72 73 42 
					74 43 73 
					43 74 44 
					44 75 45 
					74 75 44 
					45 75 76 
					45 76 47 
					77 48 46 
					46 78 77 
					47 79 46 
					79 80 46 
					46 80 78 
					76 81 47 
					79 47 81 
					48 82 55 
					83 82 48 
					55 54 48 
					83 48 77 
					49 48 54 
					49 54 57 
					51 50 84 
					84 50 85 
					50 53 85 
					63 51 86 
					87 86 51 
					84 87 51 
					53 52 88 
					88 52 89 
					52 62 89 
					85 53 88 
					83 90 55 
					56 55 90 
					83 55 82 
					90 58 56 
					91 58 90 
					58 91 92 
					58 93 94 
					58 94 59 
					58 92 93 
					94 65 59 
					95 59 65 
					95 60 59 
					96 60 95 
					60 96 61 
					61 97 98 
					98 62 61 
					97 61 96 
					62 98 89 
					86 66 63 
					65 94 64 
					64 94 99 
					64 100 67 
					101 100 64 
					101 64 99 
					65 66 95 
					102 95 66 
					86 102 66 
					68 67 69 
					69 67 71 
					67 100 71 
					72 70 103 
					99 103 70 
					100 104 71 
					104 101 71 
					101 99 71 
					105 72 103 
					106 107 72 
					107 73 72 
					105 106 72 
					108 73 107 
					73 108 74 
					109 74 108 
					74 109 75 
					109 110 75 
					110 76 75 
					81 76 111 
					110 111 76 
					77 78 105 
					105 103 77 
					77 103 92 
					90 83 77 
					92 90 77 
					80 105 78 
					112 80 79 
					81 112 79 
					80 113 114 
					114 115 80 
					80 115 105 
					112 113 80 
					112 81 116 
					111 116 81 
					84 85 117 
					117 87 84 
					85 118 117 
					85 88 118 
					87 102 86 
					102 87 119 
					87 117 120 
					120 119 87 
					88 89 121 
					118 88 121 
					122 89 98 
					89 122 123 
					123 121 89 
					92 91 90 
					92 103 124 
					92 124 93 
					124 94 93 
					94 125 99 
					126 94 124 
					94 126 125 
					95 127 96 
					95 102 127 
					97 96 127 
					127 119 97 
					128 97 129 
					128 98 97 
					129 97 119 
					122 98 128 
					101 104 100 
					119 127 102 
					115 106 105 
					115 130 106 
					106 130 107 
					130 108 107 
					130 131 108 
					108 131 132 
					132 109 108 
					133 109 132 
					109 133 134 
					109 134 110 
					110 135 111 
					134 135 110 
					135 136 111 
					111 136 116 
					116 137 112 
					112 137 113 
					137 114 113 
					138 130 114 
					115 114 130 
					137 138 114 
					136 139 116 
					137 116 139 
					117 118 140 
					140 141 117 
					141 120 117 
					118 121 142 
					140 118 142 
					119 143 129 
					119 120 143 
					144 143 120 
					120 141 144 
					145 142 121 
					145 121 146 
					121 123 146 
					146 123 122 
					147 146 122 
					122 128 147 
					147 128 148 
					148 128 129 
					148 129 143 
					130 138 131 
					149 131 138 
					133 132 131 
					131 149 133 
					150 133 149 
					134 133 151 
					133 150 151 
					151 152 134 
					134 152 135 
					152 153 135 
					136 135 153 
					154 139 136 
					153 154 136 
					139 155 137 
					137 155 156 
					156 138 137 
					138 156 149 
					139 157 158 
					139 158 155 
					139 154 157 
					140 142 159 
					159 141 140 
					160 144 141 
					141 159 160 
					142 145 159 
					143 144 148 
					161 148 144 
					161 144 160 
					145 146 162 
					163 145 162 
					163 159 145 
					164 146 147 
					146 164 162 
					165 147 148 
					164 147 165 
					148 161 165 
					149 166 167 
					149 167 150 
					166 149 156 
					168 150 167 
					150 168 169 
					150 169 151 
					151 169 152 
					152 170 153 
					152 169 170 
					154 153 171 
					170 171 153 
					171 172 154 
					172 157 154 
					158 156 155 
					173 166 156 
					158 173 156 
					172 158 157 
					158 172 173 
					174 160 159 
					159 175 174 
					175 159 163 
					160 174 176 
					161 160 176 
					176 177 161 
					177 165 161 
					163 162 178 
					162 164 179 
					178 162 179 
					175 163 178 
					164 165 177 
					180 164 177 
					179 164 180 
					172 181 166 
					173 172 166 
					181 167 166 
					181 182 167 
					182 168 167 
					169 168 183 
					168 184 183 
					184 168 182 
					183 170 169 
					170 185 171 
					183 185 170 
					171 186 172 
					185 186 171 
					172 186 181 
					174 175 187 
					174 187 188 
					188 176 174 
					175 178 189 
					175 189 187 
					190 177 176 
					176 188 190 
					180 177 191 
					177 190 192 
					177 192 191 
					178 179 193 
					189 178 193 
					194 179 180 
					179 194 193 
					191 194 180 
					186 195 181 
					195 182 181 
					182 195 184 
					195 183 184 
					185 183 195 
					195 186 185 
					196 188 187 
					187 189 196 
					188 196 197 
					197 190 188 
					198 196 189 
					189 193 198 
					190 197 199 
					199 192 190 
					191 192 200 
					200 201 191 
					201 194 191 
					192 199 200 
					202 193 194 
					198 193 202 
					194 201 202 
					196 198 203 
					196 203 204 
					197 196 204 
					199 197 205 
					197 204 205 
					206 198 207 
					198 202 207 
					198 206 203 
					205 200 199 
					208 201 200 
					200 205 208 
					209 202 201 
					208 209 201 
					207 202 209 
					210 203 206 
					210 204 203 
					211 205 204 
					204 210 211 
					212 208 205 
					211 212 205 
					206 207 213 
					213 210 206 
					207 209 214 
					213 207 214 
					208 212 215 
					209 208 215 
					216 209 215 
					214 209 216 
					217 211 210 
					218 217 210 
					210 213 218 
					212 211 217 
					219 215 212 
					217 219 212 
					220 218 213 
					213 214 220 
					220 214 221 
					221 214 216 
					216 215 222 
					215 219 222 
					222 221 216 
					223 219 217 
					224 223 217 
					217 218 224 
					225 224 218 
					218 220 225 
					223 222 219 
					220 221 226 
					220 226 225 
					221 222 227 
					228 221 227 
					226 221 228 
					222 223 227 
					223 224 229 
					229 227 223 
					230 224 225 
					230 229 224 
					225 226 231 
					231 230 225 
					232 226 228 
					231 226 232 
					228 227 233 
					227 229 233 
					233 234 228 
					234 232 228 
					235 233 229 
					229 230 235 
					235 230 236 
					236 230 231 
					237 236 231 
					231 232 237 
					238 232 234 
					237 232 238 
					233 235 239 
					234 233 239 
					239 238 234 
					235 236 240 
					240 241 235 
					241 239 235 
					242 236 237 
					236 242 240 
					237 238 243 
					243 242 237 
					238 239 244 
					244 243 238 
					239 241 244 
					241 240 245 
					245 240 246 
					240 242 246 
					245 244 241 
					247 242 248 
					242 247 246 
					242 243 248 
					248 243 249 
					243 244 249 
					244 245 249 
					250 249 245 
					251 250 245 
					245 246 251 
					246 252 251 
					252 246 247 
					252 247 253 
					253 247 248 
					253 248 254 
					254 248 249 
					249 250 254 
					255 254 250 
					250 251 255 
					251 252 256 
					251 256 255 
					257 252 258 
					252 253 258 
					252 257 256 
					253 254 259 
					260 253 259 
					258 253 260 
					254 255 259 
					261 255 256 
					262 259 255 
					261 262 255 
					256 263 261 
					263 256 257 
					257 258 264 
					265 257 264 
					257 265 263 
					258 260 266 
					258 266 264 
					262 266 259 
					260 259 266 
					267 261 263 
					262 261 268 
					261 267 268 
					266 262 268 
					263 269 267 
					269 263 265 
					270 265 264 
					264 266 270 
					271 265 270 
					265 271 269 