<?xml version="1.0"?>
<VTKFile type="PolyData" version="0.1" byte_order="LittleEndian" compressor="vtkZLibDataCompressor">
	<PolyData>
		<Piece NumberOfPoints="536" NumberOfVerts="0" NumberOfLines="0" NumberOfStrips="0" NumberOfPolys="1053">
		<PointData Normals="Normals">
		<DataArray type="Float32" Name="Normals" NumberOfComponents="3" format="ascii">
			-0.873252 -0.333599  0.355166
			-0.870147 -0.478449  0.118027
			-0.913592 -0.279171  0.295659
			-0.810960 -0.358910  0.462090
			-0.679451 -0.193852  0.707650
			-0.578841 -0.186618  0.793799
			 0.816957 -0.576063 -0.027085
			-0.719212 -0.627621 -0.298037
			-0.823652 -0.469710  0.317759
			-0.159662 -0.021851 -0.986930
			-0.866204 -0.318260 -0.385229
			-0.856577 -0.293522  0.424405
			-0.447517 -0.237667  0.862116
			-0.139529  0.002479  0.990215
			-0.019230  0.064052  0.997761
			-0.005187  0.048299  0.998819
			-0.148848 -0.061268  0.986960
			-0.457739 -0.347493 -0.818366
			-0.319317 -0.272225  0.907706
			-0.720463 -0.545712  0.427938
			 0.399226  0.362503 -0.842146
			 0.433641  0.190948 -0.880622
			-0.053243 -0.026741 -0.998224
			 0.233565  0.186862 -0.954217
			 0.833995  0.538136  0.121910
			-0.503247  0.763972  0.403843
			 0.618703  0.255030 -0.743079
			-0.931307 -0.362337 -0.037131
			-0.454908 -0.255409 -0.853126
			-0.588705 -0.213899  0.779534
			-0.095885 -0.057868  0.993709
			 0.283836  0.026774  0.958499
			 0.462786  0.248549  0.850913
			 0.354275  0.146402  0.923610
			 0.577537  0.253561  0.775988
			 0.209076  0.012801  0.977815
			-0.661715 -0.390346 -0.640127
			 0.179556  0.214152 -0.960156
			 0.289561  0.064666  0.954973
			-0.304733 -0.449089  0.839915
			 0.241708 -0.018556  0.970172
			-0.607194 -0.675029  0.419108
			 0.933496  0.318898 -0.163980
			 0.532735  0.088651 -0.841626
			 0.842808  0.310337  0.439734
			 0.819413  0.345701  0.457224
			 0.889891  0.389466  0.237509
			 0.786935  0.268505  0.555553
			 0.763883  0.491812 -0.417856
			-0.263590 -0.143289 -0.953933
			-0.960924 -0.276263 -0.017433
			 0.213386  0.062266  0.974982
			-0.659091 -0.171996  0.732132
			 0.583254 -0.040285  0.811291
			 0.746568  0.304365  0.591606
			 0.961873  0.264298  0.070340
			 0.894369  0.193831  0.403155
			 0.764978  0.258047  0.590102
			 0.437205  0.425976  0.792084
			-0.555415 -0.507507 -0.658750
			 0.055329  0.234212 -0.970610
			 0.368133  0.448283 -0.814568
			 0.785207  0.515027  0.343799
			-0.287280 -0.574227  0.766638
			 0.180800 -0.160735  0.970297
			 0.655347  0.359993  0.664022
			-0.503932 -0.785494  0.359238
			 0.824463  0.178708 -0.536958
			 0.549918  0.105238 -0.828562
			-0.390412 -0.126973 -0.911842
			 0.677531  0.134676 -0.723059
			-0.973529 -0.224668  0.042022
			 0.943249  0.208931  0.258127
			 0.225974  0.023343  0.973854
			-0.510211 -0.152442  0.846432
			 0.427558  0.001956  0.903986
			-0.547575 -0.474235 -0.689393
			-0.049255  0.283504 -0.957705
			 0.170578  0.434045 -0.884595
			 0.614584  0.664731 -0.424758
			-0.265019 -0.553651  0.789453
			 0.081554 -0.232028  0.969284
			 0.541158  0.192187  0.818665
			 0.674382  0.693945 -0.252288
			-0.559530 -0.734204  0.384539
			 0.643515  0.175224 -0.745108
			-0.374388 -0.037910 -0.926497
			 0.972451  0.183640  0.143578
			-0.967459 -0.236780 -0.089211
			-0.618169 -0.191035  0.762478
			 0.212305 -0.026310  0.976849
			-0.403518 -0.280067 -0.871054
			 0.051026  0.328531 -0.943114
			 0.204808  0.486266 -0.849470
			-0.009895 -0.214673  0.976636
			-0.466446 -0.508874  0.723516
			 0.445257  0.166133  0.879856
			 0.772448  0.633322  0.047205
			-0.775535 -0.621269 -0.112117
			 0.872356  0.186436 -0.451926
			 0.528791  0.170007 -0.831552
			-0.391778 -0.084346 -0.916186
			 0.844348  0.071913  0.530948
			-0.718998 -0.260825  0.644215
			-0.941427 -0.286178 -0.178374
			 0.156497 -0.097687  0.982836
			 0.177697  0.265458 -0.947605
			-0.168462 -0.010965 -0.985647
			 0.373870  0.443033 -0.814827
			 0.520920  0.232391  0.821363
			 0.133008 -0.073062  0.988418
			-0.348451 -0.360400  0.865271
			-0.670733 -0.482564  0.563249
			 0.778326  0.623487 -0.073969
			-0.780919 -0.507802 -0.363733
			-0.183298 -0.104023 -0.977538
			 0.951094  0.104108  0.290831
			 0.624847  0.130309 -0.769796
			-0.423544 -0.187233 -0.886315
			-0.425703 -0.252661  0.868872
			 0.269830 -0.098376  0.957870
			-0.942926 -0.327575  0.059871
			 0.408083  0.404180 -0.818600
			 0.216552  0.173914 -0.960656
			 0.817089  0.551516  0.167919
			 0.256668 -0.025927  0.966152
			-0.323245 -0.337174  0.884209
			-0.706136 -0.486710  0.514281
			-0.841744 -0.453418 -0.293050
			-0.062559 -0.003618 -0.998035
			 0.993008  0.087498  0.079238
			 0.533781  0.060255 -0.843473
			-0.625171 -0.244032 -0.741357
			 0.386449 -0.106745  0.916113
			-0.627078 -0.325250  0.707804
			 0.515519  0.533261 -0.670726
			 0.352862  0.309960 -0.882844
			 0.533056  0.509450 -0.675508
			 0.818457  0.489830 -0.300325
			 0.587014  0.070172  0.806530
			 0.016561 -0.207823  0.978026
			-0.568336 -0.411039  0.712770
			-0.892858 -0.420692  0.160695
			-0.466317 -0.083503 -0.880668
			 0.372284  0.331050 -0.867070
			 0.999592 -0.017760 -0.022383
			 0.509808  0.085574 -0.856021
			-0.806662 -0.372906  0.458517
			-0.504707 -0.157210 -0.848855
			 0.366009 -0.179625  0.913111
			 0.574827  0.401543 -0.712978
			 0.957566  0.286364  0.032592
			 0.341694 -0.124840  0.931483
			-0.192699 -0.259300  0.946378
			-0.641606 -0.369095  0.672392
			-0.903172 -0.382742  0.194393
			-0.731380 -0.128995 -0.669660
			 0.198658  0.272514 -0.941420
			 0.987375  0.012299 -0.157924
			-0.404939 -0.111242 -0.907551
			 0.407621 -0.077288  0.909875
			-0.673254 -0.299302  0.676127
			 0.460940  0.313698 -0.830137
			 0.599334  0.298743 -0.742665
			 0.908596  0.279360 -0.310501
			 0.513400 -0.004461  0.858138
			-0.147817 -0.168061  0.974631
			-0.565510 -0.282941  0.774689
			-0.863957 -0.337384  0.373831
			-0.905466 -0.217477 -0.364464
			-0.142236  0.142177 -0.979569
			 0.966085  0.233790 -0.109646
			-0.333473  0.117023 -0.935469
			-0.803093 -0.378509  0.460187
			 0.249824 -0.131820  0.959277
			 0.298448  0.195548 -0.934179
			 0.673824  0.223606 -0.704246
			 0.794871  0.104950  0.597633
			-0.142183 -0.114475  0.983199
			-0.612602 -0.233204  0.755205
			-0.920848 -0.303052  0.245353
			-0.706722 -0.092335 -0.701440
			 0.592835 -0.078410  0.801497
			 0.882599  0.217139 -0.416976
			-0.018414  0.191426 -0.981334
			-0.894733 -0.250442  0.369773
			-0.503527 -0.063135 -0.861669
			 0.204357  0.110824 -0.972603
			 0.628651  0.225184 -0.744372
			 0.972312  0.223337  0.068768
			-0.001380 -0.120048  0.992767
			-0.405157 -0.180886  0.896174
			-0.741882 -0.234334  0.628250
			-0.969329 -0.239450  0.055362
			 0.466928 -0.129978  0.874691
			 0.943136  0.178732 -0.280268
			-0.542159  0.026690 -0.839852
			-0.785193 -0.257746  0.563062
			-0.966227 -0.213169 -0.144792
			-0.352690 -0.008218 -0.935704
			 0.283629  0.198381 -0.938190
			 0.643972  0.259501 -0.719694
			 0.103775 -0.147578  0.983591
			 0.980109  0.193435 -0.044386
			-0.338886 -0.236358  0.910654
			-0.738586 -0.225783  0.635226
			 0.389354 -0.185345  0.902248
			 0.970930  0.128089 -0.202206
			 0.172249  0.214488 -0.961418
			-0.955984 -0.177111  0.233938
			-0.859746 -0.273279  0.431458
			-0.727425 -0.094825 -0.679603
			 0.281902  0.254944 -0.924951
			 0.632638  0.252156 -0.732247
			 0.564526 -0.011199  0.825339
			-0.164600 -0.218208  0.961921
			 0.879000  0.276132 -0.388730
			-0.552379 -0.258499  0.792499
			-0.024084 -0.196665  0.980175
			 0.982970  0.090121 -0.160149
			-0.277942  0.140034 -0.950336
			-0.939034 -0.120672  0.321951
			-0.677210 -0.333324  0.655959
			-0.930062 -0.331681  0.158026
			-0.480199  0.061152 -0.875025
			 0.230418  0.297695 -0.926437
			 0.633615  0.340084 -0.694892
			 0.945983  0.324205 -0.002566
			 0.328835 -0.099871  0.939092
			-0.243346 -0.266594  0.932583
			 0.375041 -0.228773  0.898336
			 0.952331  0.139048 -0.271536
			-0.287794  0.133790 -0.948301
			-0.893997 -0.223099  0.388583
			-0.506814 -0.388923  0.769336
			-0.881772 -0.416316  0.221718
			-0.752490 -0.039107 -0.657441
			 0.172357  0.369005 -0.913306
			 0.664681  0.441668 -0.602602
			 0.808962  0.159320  0.565860
			-0.164362 -0.306522  0.937566
			 0.565260 -0.247675  0.786853
			 0.912170  0.173542 -0.371253
			-0.363756  0.120158 -0.923712
			-0.771926 -0.316935  0.551073
			-0.324461 -0.386995  0.863110
			-0.470360 -0.489583  0.734214
			-0.801320 -0.476616  0.361557
			-0.806270 -0.189626 -0.560331
			-0.610288  0.014979 -0.792038
			 0.262055  0.464208 -0.846072
			 0.708240  0.480204 -0.517494
			 0.827474  0.445917 -0.341241
			-0.139026 -0.358583  0.923087
			 0.913365  0.242759  0.326852
			-0.066546 -0.341615  0.937481
			 0.836718  0.452876 -0.307907
			-0.309208 -0.424513  0.850988
			 0.838246 -0.171996  0.517456
			 0.746107  0.200667 -0.634868
			-0.712481  0.137139 -0.688160
			-0.359351 -0.307144  0.881209
			-0.303158 -0.444391  0.842978
			-0.268576 -0.478754  0.835860
			-0.345154 -0.468937  0.812999
			-0.653526 -0.686053  0.319743
			-0.711620 -0.577983  0.399415
			-0.831463  0.004903  0.555559
			-0.820193 -0.464447  0.334025
			-0.866073 -0.461963  0.191072
			-0.762039 -0.488271  0.425309
			-0.406235  0.229343 -0.884520
			-0.852163 -0.148331 -0.501812
			-0.923665 -0.383089 -0.009247
			-0.868496 -0.156363 -0.470388
			 0.164075  0.411496 -0.896521
			 0.613888  0.488012 -0.620472
			 0.781935  0.427529 -0.453649
			-0.312869 -0.421216  0.851287
			 0.918651  0.259699  0.297719
			 0.900709  0.387522 -0.196340
			 0.368197 -0.175598  0.913015
			 0.048164 -0.368744  0.928282
			-0.242299 -0.487310  0.838940
			 0.932653 -0.021955  0.360106
			 0.503493  0.201350 -0.840210
			-0.712632 -0.021608 -0.701205
			-0.505445 -0.261459  0.822292
			-0.557857 -0.640749  0.527482
			-0.399483 -0.501140  0.767641
			-0.415375 -0.502388  0.758334
			-0.430995 -0.697839  0.572070
			-0.536108 -0.642030  0.548075
			-0.655176 -0.556019  0.511456
			-0.940035 -0.255386 -0.226081
			-0.725508  0.482633  0.490616
			-0.750523  0.392924  0.531344
			-0.692997  0.567355  0.444819
			-0.845296 -0.109669 -0.522923
			-0.038994  0.394786 -0.917945
			 0.482405  0.490492 -0.725743
			 0.345897  0.424753 -0.836624
			 0.683579  0.442813 -0.580203
			 0.719295  0.507538 -0.474363
			 0.835999  0.543209 -0.077654
			 0.927824  0.339786 -0.153908
			 0.768047  0.386649 -0.510497
			 0.913642  0.401387 -0.064398
			 0.915330  0.162657  0.368393
			 0.333271 -0.376854  0.864240
			 0.618202 -0.037663  0.785117
			 0.906157  0.320943  0.275455
			 0.186428 -0.331794  0.924747
			-0.271690 -0.324664  0.905968
			-0.375126 -0.696949  0.611181
			-0.288051 -0.512204  0.809119
			 0.962102  0.113760 -0.247826
			-0.321113 -0.290729  0.901312
			-0.801386  0.075129 -0.593411
			-0.368255 -0.549344  0.750073
			-0.858459 -0.012137 -0.512738
			-0.706953 -0.495825  0.504355
			 0.107196  0.474080 -0.873932
			 0.538102  0.574010 -0.617219
			 0.708487  0.495139 -0.502876
			-0.121657 -0.206615  0.970830
			 0.860179 -0.096487 -0.500782
			 0.882893  0.084051  0.461990
			-0.237934 -0.565481  0.789695
			 0.088237 -0.473930  0.876131
			 0.950880  0.305396 -0.050605
			-0.152093 -0.319956  0.935145
			-0.925805 -0.302061  0.227256
			-0.297461  0.157111 -0.941718
			-0.838510  0.128433 -0.529534
			-0.754183 -0.489608  0.437598
			 0.133881  0.498773 -0.856330
			 0.304868  0.555515 -0.773601
			 0.584590  0.562385 -0.584789
			 0.967918  0.244202  0.059157
			 0.343632 -0.471155  0.812361
			-0.219673 -0.670251  0.708878
			 0.953798  0.206550  0.218189
			-0.105046 -0.378286  0.919709
			-0.902332 -0.425988  0.065814
			-0.278903  0.254043 -0.926108
			-0.834730  0.154449 -0.528555
			-0.769277 -0.545023  0.333412
			 0.121613  0.515626 -0.848139
			 0.476401  0.537265 -0.695980
			 0.509552  0.610462 -0.606376
			 0.922088  0.127284  0.365449
			 0.170858 -0.606293  0.776670
			-0.312974 -0.747334  0.586122
			 0.704441  0.604577 -0.371820
			 0.160718 -0.450192  0.878349
			-0.877439 -0.479569  0.010669
			-0.394129  0.342225 -0.852962
			-0.967005 -0.121871 -0.223714
			-0.474483  0.407969 -0.780017
			-0.753108 -0.577718  0.314753
			 0.349410  0.538133 -0.767023
			 0.525770  0.621002 -0.581311
			 0.494003  0.724303 -0.480985
			 0.929007  0.036380  0.368270
			 0.267914 -0.620438  0.737074
			-0.229020 -0.710819  0.665046
			 0.292797 -0.427561  0.855255
			 0.636943  0.770624 -0.021023
			-0.270589  0.531623 -0.802595
			-0.806943 -0.581035  0.106023
			-0.561264  0.215967 -0.798963
			-0.983335 -0.088223 -0.158963
			-0.543501  0.362767 -0.756972
			-0.796172 -0.491198  0.353320
			 0.480797  0.586841 -0.651500
			 0.530975  0.682023 -0.502902
			 0.471840  0.766258 -0.436138
			 0.919771  0.108614  0.377126
			 0.304517 -0.606990  0.734052
			-0.146806 -0.686118  0.712523
			 0.247627 -0.388748  0.887443
			-0.246804  0.341116 -0.907043
			 0.802036  0.596324 -0.033702
			-0.869170 -0.437139 -0.231197
			-0.950643  0.075443 -0.300975
			-0.300120  0.527277 -0.794925
			-0.531007 -0.550242  0.644411
			-0.937277 -0.295730  0.184542
			 0.498438  0.555034 -0.665956
			 0.513543  0.707978 -0.484810
			 0.480010  0.820295 -0.310976
			 0.749629  0.042236  0.660509
			 0.097438 -0.535059  0.839177
			-0.145976 -0.344072  0.927527
			-0.647442 -0.631953 -0.425975
			 0.040464  0.001513 -0.999180
			 0.209293  0.262228 -0.942037
			 0.401900  0.890750  0.212227
			-0.977057  0.069500 -0.201319
			-0.465448  0.477660 -0.745117
			-0.464075 -0.497065  0.733185
			-0.917923 -0.264593  0.295647
			 0.432868  0.602311 -0.670707
			 0.556534  0.741184 -0.375389
			 0.823761  0.494301  0.277641
			 0.149690 -0.472253  0.868660
			-0.365919 -0.793053 -0.487002
			-0.190195 -0.221260  0.956488
			 0.056229  0.169183 -0.983979
			 0.520525  0.824197  0.223054
			-0.985900  0.047162 -0.160553
			-0.519608  0.419623 -0.744261
			-0.434765 -0.392774  0.810375
			-0.898963 -0.236186  0.368892
			 0.590350  0.540818 -0.599168
			 0.662278  0.666776 -0.341756
			 0.766067  0.217801  0.604735
			 0.107445 -0.388032  0.915361
			-0.509165 -0.833767 -0.213502
			-0.082806 -0.298444  0.950828
			 0.101106  0.119464 -0.987677
			 0.486990  0.861057 -0.146358
			-0.614101  0.255216 -0.746823
			-0.993479 -0.032689 -0.109230
			-0.368449 -0.371700  0.852106
			-0.893475 -0.188087  0.407831
			 0.538984  0.327658 -0.775974
			 0.937640  0.272594 -0.215692
			 0.846741  0.300812  0.438796
			-0.428202 -0.662888 -0.614184
			-0.054459 -0.201625  0.977948
			 0.047261  0.397583 -0.916348
			 0.557355  0.810247  0.181261
			-0.346480  0.221567 -0.911515
			-0.989447 -0.027040 -0.142352
			 0.465923  0.086986  0.880539
			-0.569952 -0.205342  0.795606
			-0.866567 -0.188748  0.461992
			 0.708715  0.283510 -0.646023
			 0.924275  0.352357 -0.146838
			-0.618693 -0.699623 -0.357417
			 0.075976 -0.241330  0.967465
			 0.102361  0.456621 -0.883753
			 0.644555  0.734250  0.213131
			-0.595217  0.090149 -0.798492
			-0.935580 -0.023257  0.352347
			-0.993466  0.001705 -0.114115
			 0.964362  0.231061 -0.128908
			 0.818307  0.149939  0.554879
			-0.553423 -0.104822  0.826278
			 0.745151  0.266507 -0.611329
			-0.620613 -0.677770 -0.394294
			 0.084944 -0.334892  0.938420
			 0.068420  0.537718 -0.840344
			 0.637964  0.707356  0.304385
			-0.998341  0.041032  0.040399
			-0.543168  0.062368 -0.837304
			-0.868309  0.108237  0.484071
			 0.949770  0.157618 -0.270356
			 0.986636  0.140791 -0.082020
			 0.182609  0.071140  0.980609
			 0.552924  0.349411 -0.756430
			-0.715663 -0.617977 -0.325471
			 0.063728 -0.318480  0.945785
			 0.074411  0.466037 -0.881630
			 0.648168  0.733859  0.203296
			-0.932444  0.008089  0.361224
			-0.990394 -0.104600  0.090439
			-0.354530  0.320715 -0.878322
			-0.826528 -0.066313  0.558975
			 0.644436  0.389443 -0.658055
			 0.959536  0.207728 -0.190104
			 0.989036  0.143572 -0.034556
			 0.405618 -0.077946  0.910713
			-0.532088 -0.764944 -0.362964
			 0.110805 -0.289090  0.950868
			 0.056709  0.421673 -0.904973
			 0.653420  0.737431  0.170992
			-0.887886 -0.193651  0.417322
			-0.944202 -0.220859  0.244342
			-0.627372  0.268210 -0.731073
			 0.340549 -0.125015  0.931879
			 0.614977  0.474349 -0.629918
			 0.936252  0.305339 -0.173784
			-0.627852 -0.697515 -0.345363
			 0.043320 -0.294281  0.954736
			 0.033359  0.388152 -0.920991
			 0.553739  0.809157  0.196567
			-0.835456 -0.298015  0.461736
			-0.846665 -0.406078  0.343888
			-0.635050  0.068200 -0.769454
			 0.913693  0.307514 -0.265707
			-0.373014 -0.339703  0.863402
			 0.586075  0.531250 -0.611792
			-0.556669 -0.774592 -0.300211
			 0.065928 -0.218568  0.973592
			 0.010581  0.332345 -0.943099
			 0.528874  0.836004  0.146248
			-0.794315 -0.260883  0.548638
			-0.772860 -0.349642  0.529564
			-0.708345  0.000324 -0.705866
			 0.604507  0.512221 -0.610083
			 0.799610  0.357375 -0.482604
			 0.835569  0.044985  0.547541
			-0.551151 -0.795516 -0.251765
			 0.084607 -0.203825  0.975344
			 0.011199  0.294859 -0.955475
			 0.658340  0.747427  0.089116
			-0.737900 -0.337561  0.584429
			-0.767803 -0.246607  0.591323
			 0.563627  0.371167 -0.737942
			 0.017726  0.165932 -0.985978
			 0.830373  0.225218 -0.509663
			 0.921432  0.029236 -0.387437
			 0.705058  0.050479  0.707351
			-0.600336 -0.000673  0.799748
			-0.633375 -0.771536 -0.059728
			 0.393567 -0.171031  0.903246
			-0.201662  0.382106 -0.901847
			 0.826295  0.559155  0.067689
			-0.742128  0.364156  0.562705
			-0.699650  0.555090  0.449850
			-0.877782  0.331265  0.346066
			 0.216626  0.788414 -0.575739
			 0.201787  0.904435 -0.375872
			 0.514079  0.788030 -0.338721
			 0.287925  0.710785  0.641782
			-0.772250 -0.539446  0.335602
			 0.591051 -0.169792  0.788562
			 0.773854  0.575351 -0.264805
			-0.501736  0.291980 -0.814253
			-0.316326 -0.932266  0.175549
			 0.751906 -0.551473  0.361268
			 0.651913  0.147636 -0.743783
			-0.050412 -0.648625 -0.759437
		</DataArray>
	</PointData>
	<Points>
		<DataArray type="Float32" NumberOfComponents="3" format="ascii">
			 0.045510 -0.359282 -0.096065
			 0.045864 -0.362862 -0.098907
			 0.046834 -0.362848 -0.096091
			 0.044522 -0.357928 -0.096917
			 0.047291 -0.362858 -0.094585
			 0.045251 -0.357071 -0.094950
			 0.046449 -0.361916 -0.101342
			 0.046795 -0.361622 -0.102505
			 0.041122 -0.353626 -0.098804
			 0.047331 -0.361149 -0.103395
			 0.048270 -0.367889 -0.102660
			 0.048611 -0.368844 -0.095046
			 0.043756 -0.353109 -0.094861
			 0.051729 -0.367650 -0.093430
			 0.049774 -0.361915 -0.093954
			 0.048739 -0.355650 -0.094337
			 0.047295 -0.356240 -0.094694
			 0.040351 -0.353217 -0.103409
			 0.040630 -0.343676 -0.093408
			 0.035523 -0.345037 -0.098842
			 0.053120 -0.359047 -0.100670
			 0.054575 -0.365119 -0.101825
			 0.049587 -0.367093 -0.103977
			 0.049076 -0.360441 -0.102688
			 0.056652 -0.357969 -0.098661
			 0.052524 -0.359458 -0.100989
			 0.053651 -0.347909 -0.100135
			 0.050296 -0.374291 -0.098052
			 0.051414 -0.372990 -0.103453
			 0.051544 -0.374270 -0.094274
			 0.047966 -0.354604 -0.094473
			 0.048470 -0.351204 -0.093848
			 0.056649 -0.365194 -0.094791
			 0.058317 -0.371275 -0.093504
			 0.055246 -0.359107 -0.095283
			 0.049929 -0.355151 -0.094493
			 0.034369 -0.344880 -0.102935
			 0.041014 -0.342002 -0.102691
			 0.044537 -0.341974 -0.093327
			 0.033969 -0.335693 -0.092584
			 0.038870 -0.333605 -0.092189
			 0.030051 -0.336721 -0.096849
			 0.059060 -0.363579 -0.098275
			 0.055737 -0.371236 -0.101892
			 0.053705 -0.348167 -0.098399
			 0.056087 -0.358427 -0.097304
			 0.055216 -0.356236 -0.097219
			 0.053515 -0.353566 -0.096831
			 0.049219 -0.339097 -0.098385
			 0.053143 -0.378910 -0.103078
			 0.052222 -0.379988 -0.098591
			 0.058702 -0.377813 -0.093125
			 0.053182 -0.380157 -0.094404
			 0.052048 -0.353803 -0.095606
			 0.049249 -0.339414 -0.096351
			 0.060497 -0.369850 -0.096426
			 0.061531 -0.376189 -0.095359
			 0.054869 -0.355289 -0.097238
			 0.053009 -0.353221 -0.096363
			 0.028442 -0.336653 -0.101627
			 0.032018 -0.335090 -0.101579
			 0.042263 -0.331124 -0.098299
			 0.044478 -0.330617 -0.095428
			 0.024383 -0.328970 -0.091912
			 0.031522 -0.326242 -0.089407
			 0.036896 -0.323339 -0.092755
			 0.019648 -0.330259 -0.096783
			 0.060439 -0.376182 -0.098846
			 0.058800 -0.376687 -0.100539
			 0.054926 -0.384776 -0.102910
			 0.060527 -0.382609 -0.100155
			 0.053578 -0.386166 -0.097622
			 0.063066 -0.382174 -0.095158
			 0.060656 -0.383573 -0.093140
			 0.054968 -0.386022 -0.094244
			 0.053981 -0.353091 -0.096823
			 0.019091 -0.330041 -0.099634
			 0.023278 -0.328106 -0.100227
			 0.030093 -0.325389 -0.098532
			 0.037199 -0.322828 -0.095085
			 0.016734 -0.321790 -0.088812
			 0.023732 -0.319022 -0.086935
			 0.029056 -0.316398 -0.088700
			 0.030930 -0.315049 -0.091945
			 0.011289 -0.323379 -0.093757
			 0.061900 -0.388639 -0.100145
			 0.056501 -0.390725 -0.102826
			 0.064292 -0.388229 -0.095438
			 0.054765 -0.392131 -0.098645
			 0.056185 -0.392081 -0.094528
			 0.061936 -0.389574 -0.093627
			 0.009672 -0.323313 -0.098538
			 0.017083 -0.320396 -0.096464
			 0.026011 -0.316807 -0.094422
			 0.014741 -0.312199 -0.085267
			 0.007745 -0.314855 -0.087831
			 0.021872 -0.308939 -0.086061
			 0.024238 -0.307562 -0.088145
			 0.002563 -0.315869 -0.095603
			 0.064132 -0.394421 -0.099146
			 0.062615 -0.394832 -0.101093
			 0.057939 -0.396693 -0.103040
			 0.065139 -0.394511 -0.095363
			 0.057167 -0.398131 -0.095615
			 0.056703 -0.397782 -0.099457
			 0.062171 -0.396063 -0.094052
			 0.009262 -0.312949 -0.095471
			 0.003668 -0.315137 -0.097127
			 0.021167 -0.308294 -0.091945
			 0.017032 -0.300127 -0.085421
			 0.010969 -0.303110 -0.083443
			 0.004183 -0.305799 -0.085239
			-0.000651 -0.307103 -0.090282
			 0.017523 -0.299630 -0.087156
			-0.003393 -0.307365 -0.096084
			-0.002531 -0.306920 -0.096498
			 0.066233 -0.400477 -0.096665
			 0.063697 -0.400910 -0.101672
			 0.059520 -0.402641 -0.102944
			 0.059618 -0.403692 -0.095429
			 0.063582 -0.401978 -0.094715
			 0.058405 -0.403878 -0.097963
			 0.013358 -0.300763 -0.091442
			 0.000495 -0.305747 -0.095535
			 0.011266 -0.291657 -0.085173
			 0.007548 -0.293687 -0.082728
			 0.000049 -0.296904 -0.083192
			-0.005360 -0.298386 -0.088699
			-0.008908 -0.298811 -0.095679
			-0.007816 -0.298237 -0.096262
			 0.067386 -0.406351 -0.098419
			 0.065111 -0.407029 -0.100929
			 0.060982 -0.408706 -0.102420
			 0.065278 -0.407627 -0.096303
			 0.061019 -0.409568 -0.096394
			 0.007343 -0.292593 -0.090025
			 0.002066 -0.294235 -0.094188
			 0.002771 -0.284152 -0.086367
			 0.005856 -0.283279 -0.083403
			 0.005289 -0.283721 -0.082211
			-0.001434 -0.286900 -0.080810
			-0.007681 -0.289199 -0.083553
			-0.012932 -0.289989 -0.092892
			-0.012706 -0.289424 -0.095764
			-0.004675 -0.286160 -0.094144
			 0.067588 -0.409515 -0.098924
			 0.065768 -0.410075 -0.100807
			 0.061758 -0.412404 -0.097453
			 0.061907 -0.411607 -0.102447
			 0.064851 -0.411147 -0.096338
			-0.002626 -0.275749 -0.084716
			 0.002778 -0.274097 -0.080269
			 0.001243 -0.274974 -0.079021
			-0.005101 -0.277825 -0.078617
			-0.012155 -0.280326 -0.082292
			-0.016549 -0.280896 -0.090671
			-0.016308 -0.280385 -0.093167
			-0.011345 -0.278106 -0.093785
			 0.067074 -0.412960 -0.099740
			 0.063091 -0.414367 -0.102625
			 0.065467 -0.414104 -0.096959
			 0.062731 -0.415249 -0.097708
			-0.012758 -0.268157 -0.090873
			-0.004954 -0.266069 -0.082623
			-0.000284 -0.264708 -0.078371
			-0.000793 -0.265138 -0.077105
			-0.007478 -0.268156 -0.076594
			-0.015524 -0.270953 -0.081127
			-0.018953 -0.271620 -0.086295
			-0.019477 -0.271048 -0.091238
			-0.017498 -0.270037 -0.092112
			 0.067433 -0.416056 -0.100219
			 0.064388 -0.417010 -0.103245
			 0.063411 -0.418145 -0.098541
			 0.066034 -0.417115 -0.097352
			-0.017699 -0.259426 -0.090005
			-0.005354 -0.255623 -0.080036
			-0.002341 -0.254952 -0.076021
			-0.009176 -0.257963 -0.075957
			-0.019218 -0.261563 -0.080947
			-0.022260 -0.262056 -0.086143
			-0.022306 -0.261488 -0.089765
			 0.067121 -0.419845 -0.098048
			 0.067700 -0.419119 -0.101203
			 0.064812 -0.420046 -0.103937
			 0.064095 -0.421038 -0.099384
			-0.024077 -0.251330 -0.089115
			-0.019882 -0.249457 -0.089304
			-0.009150 -0.246106 -0.080911
			-0.004517 -0.244981 -0.075308
			-0.007062 -0.246224 -0.074535
			-0.017376 -0.250245 -0.077666
			-0.023040 -0.252108 -0.081514
			-0.025333 -0.252329 -0.086355
			 0.067487 -0.422938 -0.098514
			 0.068270 -0.422129 -0.101605
			 0.065429 -0.423001 -0.104557
			 0.064864 -0.423968 -0.099703
			-0.027746 -0.242261 -0.086882
			-0.026382 -0.241395 -0.088533
			-0.022058 -0.239486 -0.088592
			-0.012686 -0.236727 -0.080241
			-0.009483 -0.236508 -0.072918
			-0.006929 -0.235255 -0.073729
			-0.019182 -0.240275 -0.075951
			-0.024638 -0.242014 -0.079996
			 0.067666 -0.429332 -0.099769
			 0.068554 -0.428431 -0.103151
			 0.066880 -0.428825 -0.105719
			 0.065865 -0.429922 -0.101389
			-0.028393 -0.232241 -0.082345
			-0.029643 -0.232026 -0.087049
			-0.024730 -0.229897 -0.086875
			-0.012315 -0.226027 -0.077126
			-0.009492 -0.225686 -0.071591
			-0.015539 -0.228293 -0.071886
			-0.009735 -0.225433 -0.073809
			-0.023647 -0.231248 -0.075620
			 0.068104 -0.435652 -0.100716
			 0.068992 -0.434636 -0.104887
			 0.067247 -0.435124 -0.107029
			 0.066618 -0.436098 -0.102334
			-0.028391 -0.222167 -0.076372
			-0.032775 -0.222907 -0.083678
			-0.032433 -0.222483 -0.085367
			-0.028350 -0.220784 -0.084788
			-0.014527 -0.216227 -0.075461
			-0.011795 -0.215835 -0.070484
			-0.012837 -0.216486 -0.069297
			-0.019596 -0.219313 -0.070159
			 0.068317 -0.438772 -0.101484
			 0.069010 -0.437841 -0.105684
			 0.067396 -0.438304 -0.107585
			 0.066598 -0.439342 -0.102980
			-0.029248 -0.212177 -0.072212
			-0.035013 -0.213551 -0.079343
			-0.035619 -0.213319 -0.082376
			-0.031679 -0.211561 -0.082590
			-0.018350 -0.207151 -0.073697
			-0.015671 -0.206959 -0.067631
			-0.020166 -0.208956 -0.067483
			 0.069137 -0.441524 -0.102861
			 0.069482 -0.440935 -0.105815
			 0.067706 -0.441455 -0.107835
			 0.067041 -0.442350 -0.103788
			-0.030080 -0.205146 -0.069502
			-0.034135 -0.203588 -0.070327
			-0.039120 -0.204706 -0.076926
			-0.038980 -0.204262 -0.079229
			-0.039367 -0.204504 -0.078836
			-0.030859 -0.201137 -0.076564
			-0.021652 -0.198074 -0.070525
			-0.020306 -0.200074 -0.069873
			-0.022216 -0.202480 -0.065276
			-0.018449 -0.200147 -0.064928
			-0.023092 -0.199711 -0.064332
			-0.020477 -0.198394 -0.067806
			-0.027345 -0.201389 -0.066727
			 0.070035 -0.444124 -0.105032
			 0.069182 -0.444171 -0.107395
			 0.067594 -0.444777 -0.108239
			 0.067300 -0.445449 -0.104549
			-0.031258 -0.202663 -0.068805
			-0.031490 -0.200587 -0.067647
			-0.033624 -0.198269 -0.066962
			-0.040987 -0.195615 -0.069957
			-0.042108 -0.195768 -0.072325
			-0.038727 -0.204731 -0.076048
			-0.040762 -0.200627 -0.075265
			-0.039706 -0.203505 -0.076742
			-0.041368 -0.199279 -0.074903
			-0.042619 -0.195836 -0.075236
			-0.040734 -0.201481 -0.077551
			-0.041826 -0.199368 -0.076126
			-0.039854 -0.203437 -0.078226
			-0.039208 -0.194072 -0.074680
			-0.025633 -0.189142 -0.066840
			-0.021476 -0.195963 -0.067111
			-0.024969 -0.200616 -0.065465
			-0.019293 -0.198079 -0.064107
			-0.019799 -0.198408 -0.065983
			-0.024029 -0.189668 -0.061484
			-0.025857 -0.194047 -0.062859
			-0.028695 -0.195920 -0.064300
			 0.070351 -0.447122 -0.106317
			 0.069345 -0.447294 -0.108303
			 0.067023 -0.448319 -0.108573
			 0.067372 -0.448599 -0.105553
			-0.039134 -0.197338 -0.069808
			-0.033788 -0.193378 -0.064258
			-0.035992 -0.195401 -0.066770
			-0.033116 -0.193141 -0.063794
			-0.041227 -0.195175 -0.069395
			-0.042329 -0.194036 -0.069178
			-0.044085 -0.194033 -0.073688
			-0.035764 -0.203927 -0.072456
			-0.035175 -0.203821 -0.071703
			-0.036220 -0.204019 -0.073049
			-0.042074 -0.198653 -0.075996
			-0.040729 -0.192542 -0.074388
			-0.026262 -0.187855 -0.066562
			-0.028977 -0.190493 -0.069024
			-0.022800 -0.192988 -0.066577
			-0.023151 -0.191994 -0.066151
			-0.022205 -0.192369 -0.064429
			-0.022769 -0.188838 -0.062378
			-0.024862 -0.189192 -0.065906
			-0.021179 -0.192708 -0.064179
			-0.020675 -0.195898 -0.064840
			-0.024873 -0.189972 -0.061123
			-0.023194 -0.189098 -0.061970
			-0.023470 -0.187494 -0.061675
			-0.026121 -0.188799 -0.060332
			-0.024582 -0.190747 -0.061352
			-0.032338 -0.193609 -0.063775
			-0.033712 -0.191518 -0.062816
			 0.071153 -0.449870 -0.107773
			 0.068257 -0.451411 -0.106323
			 0.066967 -0.451584 -0.109193
			-0.034400 -0.192690 -0.064009
			-0.045542 -0.188418 -0.071541
			-0.044385 -0.188748 -0.066534
			-0.042145 -0.187012 -0.071609
			-0.028104 -0.182491 -0.063839
			-0.023275 -0.190707 -0.065161
			-0.021149 -0.194252 -0.064221
			-0.023332 -0.189700 -0.063179
			-0.025853 -0.182397 -0.058671
			-0.035826 -0.186219 -0.060389
			-0.028681 -0.183651 -0.058103
			 0.071971 -0.452718 -0.108505
			 0.069196 -0.454166 -0.107308