<?xml version="1.0"?>
<VTKFile type="PolyData" version="0.1" byte_order="LittleEndian" compressor="vtkZLibDataCompressor">
	<PolyData>
		<Piece NumberOfPoints="175" NumberOfVerts="0" NumberOfLines="0" NumberOfStrips="0" NumberOfPolys="346">
		<PointData Normals="Normals">
		<DataArray type="Float32" Name="Normals" NumberOfComponents="3" format="ascii">
			 0.988295  0.103861 -0.111738
			 0.301732 -0.945210  0.124640
			 0.870346 -0.444300 -0.212357
			 0.233508 -0.879901  0.413821
			 0.868733  0.419179 -0.263801
			 0.988686  0.116699 -0.094244
			 0.802535  0.481549 -0.352204
			-0.367760 -0.929605  0.024236
			-0.735084 -0.654271  0.177710
			-0.224721 -0.960174 -0.166031
			 0.958032 -0.069000 -0.278233
			 0.471496 -0.778490  0.414301
			-0.685156 -0.690679  0.231354
			 0.036232 -0.160186 -0.986422
			 0.951002  0.187206 -0.246069
			 0.753246  0.483944 -0.445443
			-0.112521 -0.116924 -0.986746
			 0.618257  0.617355 -0.486447
			-0.804445 -0.592861  0.037188
			-0.734261 -0.665643  0.133342
			 0.394785 -0.767428 -0.505171
			 0.983822 -0.159857  0.080872
			 0.219442 -0.831775  0.509898
			-0.708683 -0.646213  0.283155
			-0.772769 -0.634678 -0.003583
			 0.890325  0.335299 -0.308051
			 0.620979  0.551679 -0.556808
			-0.711869 -0.702147 -0.015249
			-0.184209 -0.009617 -0.982840
			-0.441031  0.019137 -0.897288
			-0.725991 -0.678978  0.109207
			 0.988371 -0.147204  0.038117
			-0.695819 -0.590230  0.409225
			 0.281169 -0.813497  0.509083
			-0.794047 -0.523204  0.309432
			-0.733306 -0.652204  0.192075
			 0.863733  0.374453 -0.337269
			 0.509537  0.623120 -0.593375
			 0.288910  0.771394 -0.566994
			-0.709126 -0.685167  0.166391
			-0.709284  0.211151 -0.672556
			 0.987704 -0.149283 -0.046424
			-0.619599 -0.658419  0.427296
			-0.744380 -0.572249  0.344135
			 0.379039 -0.841618  0.384719
			-0.710041 -0.621965  0.330154
			 0.830808  0.392228 -0.394862
			 0.474751  0.632544 -0.611964
			-0.737732  0.355860 -0.573686
			 0.985809 -0.120558 -0.116821
			-0.607632 -0.698194  0.378561
			-0.721928 -0.602347  0.340587
			-0.727783 -0.593812  0.343101
			 0.842396 -0.507969  0.179821
			 0.109359 -0.892031  0.438545
			 0.786121  0.454361 -0.419010
			 0.454767  0.714069 -0.532253
			 0.183765  0.730016 -0.658261
			-0.542969  0.584017 -0.603414
			-0.977653 -0.128823  0.166129
			 0.982738 -0.070195 -0.171166
			-0.699356 -0.625459  0.345980
			-0.829707 -0.413845  0.374592
			-0.872813 -0.291131  0.391715
			 0.850273 -0.511194  0.125367
			 0.443290 -0.793064  0.417783
			-0.233519 -0.803233  0.547983
			 0.399859  0.720427 -0.566655
			 0.798991  0.405227 -0.444301
			-0.749159  0.604082 -0.271746
			 0.969909 -0.123354 -0.209906
			-0.818662 -0.469149  0.331199
			-0.528876 -0.681903  0.505271
			-0.916281 -0.216829  0.336771
			 0.839477 -0.541673  0.043230
			 0.016359 -0.803937  0.594490
			 0.473983 -0.741567  0.474784
			 0.491714  0.619889 -0.611519
			-0.680078  0.471773 -0.561181
			 0.809368  0.365088 -0.460038
			 0.972056 -0.121853 -0.200648
			-0.837939 -0.373439  0.397996
			-0.822612 -0.460361  0.333734
			-0.873159 -0.420728  0.246133
			-0.400630 -0.573698  0.714399
			 0.790774 -0.556800  0.254264
			 0.242557 -0.702280  0.669304
			-0.678599  0.569724 -0.463593
			 0.505532  0.594644 -0.625169
			 0.818623  0.294233 -0.493238
			 0.949824 -0.046693 -0.309281
			 0.951005 -0.298311  0.081237
			-0.795028 -0.314310  0.518787
			-0.877036 -0.356902  0.321603
			-0.964682 -0.071566  0.253508
			-0.295151 -0.432978  0.851713
			 0.455147 -0.546663  0.702852
			-0.636586  0.664187 -0.391936
			 0.531390  0.585033 -0.612667
			 0.815383  0.299385 -0.495499
			 0.972072 -0.006147 -0.234602
			 0.931204 -0.220012  0.290608
			-0.915307 -0.251100  0.314899
			-0.787670 -0.302907  0.536492
			-0.413943 -0.351629  0.839648
			 0.403186 -0.430717  0.807418
			-0.974088 -0.056619  0.218970
			-0.863006  0.480374 -0.156400
			-0.203874  0.810655 -0.548884
			 0.361563  0.681765 -0.635979
			 0.543367  0.545031 -0.638509
			 0.873590  0.211961 -0.438078
			 0.787276  0.318978 -0.527683
			 0.981199  0.138947 -0.133950
			 0.798406 -0.118539  0.590336
			-0.894814 -0.104389  0.434064
			-0.668006 -0.115182  0.735187
			 0.001987 -0.271249  0.962507
			-0.915518  0.396410  0.068450
			-0.052699  0.770070 -0.635779
			 0.696707  0.304729 -0.649415
			 0.905557  0.116063 -0.408040
			 0.999462 -0.017678  0.027623
			 0.475835 -0.055072  0.877809
			-0.200053 -0.071945  0.977140
			-0.798534  0.108764  0.592042
			-0.899880  0.206954  0.383908
			-0.876757  0.420555  0.233303
			-0.239396  0.696294 -0.676657
			 0.547199  0.295799 -0.782991
			 0.797229  0.182914 -0.575299
			 0.938841  0.061207 -0.338868
			 0.997861 -0.058966  0.028238
			 0.236124 -0.136547  0.962081
			-0.601772  0.185003  0.776946
			-0.860034  0.282169  0.425115
			-0.417819  0.651339 -0.633392
			-0.879769  0.408576  0.243046
			 0.684570  0.208455 -0.698506
			 0.810976  0.283923 -0.511571
			 0.929613  0.283810 -0.235098
			 0.802069  0.132150  0.582427
			-0.805979  0.136163  0.576071
			-0.578846 -0.058852  0.813310
			-0.867741  0.361523  0.341068
			-0.544460  0.708243 -0.449395
			 0.835732  0.322076 -0.444769
			 0.786002  0.609472  0.103658
			-0.170180  0.258796  0.950823
			-0.917911  0.138056  0.371995
			-0.854309 -0.168929  0.491547
			-0.353979  0.540511 -0.763247
			 0.768270  0.541411 -0.341518
			 0.652153  0.757715 -0.023774
			-0.382046  0.426321  0.819934
			-0.830588 -0.405587  0.381606
			-0.941024 -0.174896  0.289631
			-0.970690 -0.205551  0.124537
			-0.136357  0.363957 -0.921380
			 0.898559  0.346635 -0.269139
			 0.623473  0.780858  0.039274
			-0.489027  0.371495  0.789205
			-0.821385 -0.509699  0.255994
			-0.184194  0.536460 -0.823580
			-0.840605 -0.509822  0.182933
			-0.931776 -0.358036  0.060029
			 0.776431  0.626229  0.070652
			 0.891437  0.425901 -0.154753
			-0.455701  0.395963  0.797214
			-0.966426  0.256169 -0.019944
			-0.347034  0.916644 -0.198320
			 0.288713  0.957413  0.002087
			-0.447710  0.675389  0.586008
			-0.913227  0.362272  0.186481
			 0.410260  0.904578  0.115871
		</DataArray>
	</PointData>
	<Points>
		<DataArray type="Float32" NumberOfComponents="3" format="ascii">
			-0.025629 -0.147397 -0.112639
			-0.026190 -0.151150 -0.111130
			-0.026151 -0.149908 -0.118754
			-0.026639 -0.148797 -0.106508
			-0.027670 -0.147246 -0.118796
			-0.025336 -0.144584 -0.108994
			-0.028499 -0.144373 -0.118388
			-0.027723 -0.150598 -0.118476
			-0.028169 -0.148547 -0.111982
			-0.028186 -0.150432 -0.120696
			-0.026757 -0.149789 -0.121042
			-0.027011 -0.146369 -0.102167
			-0.029046 -0.146329 -0.107625
			-0.029637 -0.147102 -0.124723
			-0.025587 -0.138617 -0.105956
			-0.031620 -0.139343 -0.116863
			-0.031814 -0.144723 -0.124683
			-0.034895 -0.139900 -0.121773
			-0.029874 -0.148265 -0.118088
			-0.030617 -0.146296 -0.111839
			-0.027453 -0.149655 -0.123660
			-0.025130 -0.139749 -0.097746
			-0.027153 -0.141157 -0.094163
			-0.032090 -0.141923 -0.102009
			-0.031216 -0.145508 -0.118274
			-0.026922 -0.132867 -0.104349
			-0.033462 -0.133980 -0.114140
			-0.036678 -0.140840 -0.120478
			-0.036332 -0.140144 -0.123926
			-0.041126 -0.135700 -0.123025
			-0.035563 -0.141104 -0.115987
			-0.025088 -0.134564 -0.089098
			-0.031566 -0.136677 -0.092513
			-0.026265 -0.135651 -0.085343
			-0.034880 -0.136608 -0.101416
			-0.039264 -0.136515 -0.113191
			-0.027805 -0.127401 -0.099809
			-0.033585 -0.128246 -0.109326
			-0.043563 -0.131038 -0.117456
			-0.045033 -0.131985 -0.115326
			-0.045595 -0.131607 -0.119114
			-0.023883 -0.128649 -0.082020
			-0.030432 -0.131048 -0.083837
			-0.036017 -0.131406 -0.095882
			-0.025194 -0.129965 -0.077184
			-0.040678 -0.131705 -0.105934
			-0.028178 -0.121853 -0.094482
			-0.035311 -0.123035 -0.105358
			-0.048138 -0.127070 -0.113044
			-0.021918 -0.122463 -0.074679
			-0.031611 -0.126206 -0.076169
			-0.037830 -0.126531 -0.090047
			-0.043091 -0.126806 -0.101782
			-0.023094 -0.124165 -0.067100
			-0.025194 -0.125233 -0.065828
			-0.027339 -0.116156 -0.086975
			-0.036452 -0.117774 -0.100204
			-0.041718 -0.119289 -0.104236
			-0.048504 -0.121576 -0.107354
			-0.048792 -0.121868 -0.106280
			-0.020692 -0.116396 -0.068498
			-0.029843 -0.120836 -0.064262
			-0.037885 -0.121274 -0.082095
			-0.046807 -0.121759 -0.101880
			-0.020775 -0.117692 -0.060645
			-0.023550 -0.119458 -0.056757
			-0.026567 -0.120658 -0.056999
			-0.036907 -0.115297 -0.096376
			-0.025598 -0.113167 -0.080724
			-0.047911 -0.118459 -0.104832
			-0.019406 -0.113493 -0.062870
			-0.036605 -0.118393 -0.076344
			-0.028234 -0.118345 -0.055248
			-0.043512 -0.118433 -0.093748
			-0.019093 -0.114517 -0.055701
			-0.024800 -0.117466 -0.051941
			-0.021139 -0.115964 -0.051931
			-0.038337 -0.112852 -0.094844
			-0.046536 -0.115109 -0.101760
			-0.024686 -0.110105 -0.077044
			-0.017290 -0.110405 -0.056273
			-0.031479 -0.115790 -0.059041
			-0.036666 -0.115774 -0.072400
			-0.044931 -0.115748 -0.093688
			-0.026353 -0.115120 -0.050106
			-0.017494 -0.111428 -0.050429
			-0.021897 -0.113577 -0.048320
			-0.047019 -0.112523 -0.098684
			-0.037507 -0.109770 -0.091505
			-0.025423 -0.107423 -0.075213
			-0.017387 -0.106935 -0.057709
			-0.016238 -0.107905 -0.048737
			-0.029068 -0.112615 -0.052231
			-0.041969 -0.113428 -0.080145
			-0.044581 -0.112961 -0.089733
			-0.023715 -0.111299 -0.046738
			-0.018436 -0.109274 -0.045836
			-0.045620 -0.109280 -0.094884
			-0.033936 -0.106111 -0.084735
			-0.023813 -0.104147 -0.071078
			-0.015596 -0.103748 -0.052560
			-0.015766 -0.104852 -0.046127
			-0.041232 -0.110392 -0.076757
			-0.030652 -0.109867 -0.052978
			-0.024724 -0.108562 -0.045944
			-0.018085 -0.106169 -0.043857
			-0.044328 -0.107078 -0.084884
			-0.044869 -0.106514 -0.089773
			-0.044135 -0.106083 -0.090578
			-0.041692 -0.105416 -0.088480
			-0.033402 -0.103155 -0.081360
			-0.020611 -0.100929 -0.062513
			-0.023998 -0.101237 -0.069256
			-0.015546 -0.100588 -0.051689
			-0.016353 -0.102164 -0.043951
			-0.036122 -0.107608 -0.060614
			-0.025870 -0.105709 -0.046219
			-0.019372 -0.103634 -0.042519
			-0.043140 -0.100541 -0.081719
			-0.041792 -0.099859 -0.082510
			-0.026482 -0.095547 -0.070207
			-0.019351 -0.094639 -0.057625
			-0.016602 -0.095341 -0.046236
			-0.017666 -0.096572 -0.041298
			-0.019806 -0.097496 -0.041017
			-0.029730 -0.100100 -0.050180
			-0.036739 -0.100887 -0.063200
			-0.036751 -0.093094 -0.070917
			-0.036767 -0.092408 -0.075220
			-0.029049 -0.089973 -0.070643
			-0.023745 -0.088848 -0.064089
			-0.016563 -0.087724 -0.052721
			-0.015575 -0.088683 -0.044231
			-0.016818 -0.089864 -0.040060
			-0.021220 -0.091208 -0.042957
			-0.031207 -0.093099 -0.056718
			-0.032269 -0.084898 -0.069648
			-0.031573 -0.085136 -0.066387
			-0.027849 -0.083497 -0.067062
			-0.021572 -0.082308 -0.058417
			-0.016641 -0.081952 -0.048034
			-0.015750 -0.082938 -0.039622
			-0.020886 -0.084192 -0.044947
			-0.017373 -0.083595 -0.039683
			-0.029872 -0.085720 -0.058411
			-0.029493 -0.080643 -0.068623
			-0.022127 -0.079401 -0.057526
			-0.016543 -0.079611 -0.041945
			-0.017634 -0.080419 -0.039710
			-0.026735 -0.081574 -0.055782
			-0.018300 -0.080504 -0.040885
			-0.028632 -0.077272 -0.066997
			-0.023758 -0.076596 -0.058743
			-0.019511 -0.076815 -0.046528
			-0.019798 -0.077767 -0.041342
			-0.021694 -0.077876 -0.045508
			-0.026672 -0.078162 -0.056449
			-0.028115 -0.075018 -0.059302
			-0.028130 -0.073995 -0.065701
			-0.026335 -0.074203 -0.059815
			-0.022921 -0.074600 -0.048625
			-0.023684 -0.075487 -0.045055
			-0.024637 -0.075387 -0.048117
			-0.028122 -0.070899 -0.064538
			-0.027484 -0.072663 -0.051940
			-0.028620 -0.072459 -0.056109
			-0.025651 -0.071835 -0.052400
			-0.026479 -0.071521 -0.056473
			-0.026297 -0.072875 -0.047583
			-0.029929 -0.069170 -0.059518
			-0.029314 -0.068573 -0.061664
			-0.028867 -0.068699 -0.059734
			-0.028833 -0.070233 -0.050105
			-0.029233 -0.069846 -0.053539
			-0.027455 -0.069095 -0.053661
		</DataArray>
	</Points>
			<Polys>
				<DataArray type="Int32" Name="connectivity" format="ascii">
					0 1 2 
					1 0 3 
					2 4 0 
					5 3 0 
					4 6 0 
					0 6 5 
					2 1 7 
					3 8 1 
					7 1 8 
					9 2 7 
					10 4 2 
					2 9 10 
					3 5 11 
					11 12 3 
					12 8 3 
					10 13 4 
					6 4 13 
					14 11 5 
					15 5 6 
					5 15 14 
					13 16 6 
					17 6 16 
					6 17 15 
					8 18 7 
					18 9 7 
					12 19 8 
					18 8 19 
					13 20 9 
					9 20 10 
					9 18 13 
					20 13 10 
					11 21 22 
					22 23 11 
					11 14 21 
					23 12 11 
					23 19 12 
					24 13 18 
					24 16 13 
					25 21 14 
					26 14 15 
					14 26 25 
					17 26 15 
					16 27 28 
					28 17 16 
					27 16 24 
					28 29 17 
					29 26 17 
					19 24 18 
					23 30 19 
					24 19 30 
					21 25 31 
					31 22 21 
					22 32 23 
					22 31 33 
					33 32 22 
					34 35 23 
					32 34 23 
					35 30 23 
					24 30 27 
					36 31 25 
					37 25 26 
					25 37 36 
					29 38 26 
					26 38 37 
					29 28 27 
					35 29 27 
					35 27 30 
					29 39 40 
					40 38 29 
					29 35 39 
					31 36 41 
					41 33 31 
					33 42 32 
					34 32 43 
					42 43 32 
					33 41 44 
					44 42 33 
					34 45 35 
					43 45 34 
					45 39 35 
					46 41 36 
					47 36 37 
					36 47 46 
					38 48 37 
					37 48 47 
					40 48 38 
					45 48 39 
					48 40 39 
					41 46 49 
					49 44 41 
					44 50 42 
					50 51 42 
					51 43 42 
					51 52 43 
					45 43 52 
					44 49 53 
					44 53 54 
					54 50 44 
					52 48 45 
					55 49 46 
					56 46 47 
					46 56 55 
					57 47 48 
					47 57 56 
					48 58 57 
					59 48 52 
					48 59 58 
					49 55 60 
					53 49 60 
					54 61 50 
					61 62 50 
					62 51 50 
					62 63 51 
					52 51 63 
					63 59 52 
					53 60 64 
					64 54 53 
					54 64 65 
					65 66 54 
					66 61 54 
					67 55 56 
					68 60 55 
					55 67 68 
					56 57 67 
					58 69 57 
					57 69 67 
					69 58 59 
					63 69 59 
					70 64 60 
					60 68 70 
					61 71 62 
					66 72 61 
					72 71 61 
					62 73 63 
					71 73 62 
					73 69 63 
					64 70 74 
					65 64 74 
					65 72 66 
					75 72 65 
					65 74 76 
					76 75 65 
					77 68 67 
					78 67 69 
					78 77 67 
					68 77 79 
					79 70 68 
					73 78 69 
					70 79 80 
					80 74 70 
					72 81 71 
					82 83 71 
					71 81 82 
					83 73 71 
					75 84 72 
					84 81 72 
					83 78 73 
					74 80 85 
					76 74 85 
					76 84 75 
					86 84 76 
					85 86 76 
					78 87 77 
					77 87 88 
					88 79 77 
					83 87 78 
					89 80 79 
					79 88 89 
					80 89 90 
					91 85 80 
					90 91 80 
					84 92 81 
					82 81 92 
					82 93 83 
					92 93 82 
					83 93 94 
					94 87 83 
					84 86 95 
					95 92 84 
					85 91 96 
					86 85 96 
					96 95 86 
					97 88 87 
					94 97 87 
					98 89 88 
					88 97 98 
					99 90 89 
					89 98 99 
					90 99 100 
					100 91 90 
					91 100 101 
					96 91 101 
					92 102 93 
					103 102 92 
					92 95 104 
					104 103 92 
					94 93 102 
					102 97 94 
					96 104 95 
					101 105 96 
					105 104 96 
					102 106 97 
					97 107 108 
					108 109 97 
					97 106 107 
					109 98 97 
					110 99 98 
					109 110 98 
					111 100 99 
					110 112 99 
					112 111 99 
					100 111 113 
					113 101 100 
					101 113 114 
					105 101 114 
					103 115 102 
					102 115 106 
					104 116 103 
					116 115 103 
					117 104 105 
					104 117 116 
					114 117 105 
					118 106 115 
					118 107 106 
					119 108 107 
					107 118 119 
					108 119 109 
					109 119 110 
					119 120 110 
					120 112 110 
					111 120 121 
					113 111 121 
					120 111 112 
					122 114 113 
					113 121 122 
					114 122 123 
					123 124 114 
					117 114 124 
					116 125 115 
					125 126 115 
					126 118 115 
					124 125 116 
					116 117 124 
					127 118 126 
					128 119 118 
					127 128 118 
					128 120 119 
					128 129 120 
					129 130 120 
					130 121 120 
					121 130 131 
					131 122 121 
					122 132 133 
					122 131 132 
					123 122 133 
					123 134 124 
					133 134 123 
					124 134 125 
					125 135 126 
					125 134 135 
					126 135 127 
					136 128 127 
					137 127 135 
					137 136 127 
					128 136 129 
					129 136 138 
					138 130 129 
					138 139 130 
					139 131 130 
					131 139 140 
					140 132 131 
					132 140 141 
					141 133 132 
					133 142 134 
					133 141 143 
					143 142 133 
					134 142 135 
					142 144 135 
					135 144 137 
					145 138 136 
					137 145 136 
					144 145 137 
					145 146 138 
					146 139 138 
					146 140 139 
					147 141 140 
					140 146 147 
					141 147 148 
					148 143 141 
					142 149 144 
					142 143 150 
					150 149 142 
					143 148 150 
					144 149 145 
					145 151 146 
					149 151 145 
					152 153 146 
					153 147 146 
					146 151 152 
					154 148 147 
					147 153 154 
					148 154 150 
					150 155 149 
					149 156 151 
					155 156 149 
					154 155 150 
					157 151 156 
					151 157 158 
					158 159 151 
					152 151 159 
					152 160 153 
					159 160 152 
					161 154 153 
					153 160 161 
					154 161 155 
					161 162 155 
					162 156 155 
					156 162 157 
					163 158 157 
					164 165 157 
					157 162 164 
					157 165 163 
					158 163 159 
					159 166 160 
					163 167 159 
					167 166 159 
					168 161 160 
					166 168 160 
					161 168 162 
					168 164 162 
					169 163 165 
					163 169 170 
					170 171 163 
					171 167 163 
					168 172 164 
					172 173 164 
					165 164 173 
					173 169 165 
					172 168 166 
					167 174 166 
					174 172 166 
					171 174 167 
					173 171 169 
					169 171 170 
					174 171 173 
					174 173 172 
				</DataArray>
				<DataArray type="Int32" Name="offsets" format="ascii">
					3 6 9 12 15 18 21 24 27 30 33 36 39 42 45 48 51 54 57 60 63 66 69 72 75 78 81 84 87 90 93 96 99 102 105 108 111 114 117 120 123 126 129 132 135 138 141 144 147 150 153 156 159 162 165 168 171 174 177 180 183 186 189 192 195 198 201 204 207 210 213 216 219 222 225 228 231 234 237 240 243 246 249 252 255 258 261 264 267 270 273 276 279 282 285 288 291 294 297 300 303 306 309 312 315 318 321 324 327 330 333 336 339 342 345 348 351 354 357 360 363 366 369 372 375 378 381 384 387 390 393 396 399 402 405 408 411 414 417 420 423 426 429 432 435 438 441 444 447 450 453 456 459 462 465 468 471 474 477 480 483 486 489 492 495 498 501 504 507 510 513 516 519 522 525 528 531 534 537 540 543 546 549 552 555 558 561 564 567 570 573 576 579 582 585 588 591 594 597 600 603 606 609 612 615 618 621 624 627 630 633 636 639 642 645 648 651 654 657 660 663 666 669 672 675 678 681 684 687 690 693 696 699 702 705 708 711 714 717 720 723 726 729 732 735 738 741 744 747 750 753 756 759 762 765 768 771 774 777 780 783 786 789 792 795 798 801 804 807 810 813 816 819 822 825 828 831 834 837 840 843 846 849 852 855 858 861 864 867 870 873 876 879 882 885 888 891 894 897 900 903 906 909 912 915 918 921 924 927 930 933 936 939 942 945 948 951 954 957 960 963 966 969 972 975 978 981 984 987 990 993 996 999 1002 1005 1008 1011 1014 1017 1020 1023 1026 1029 1032 1035 1038 
				</DataArray>
			</Polys>
		</Piece>
	</PolyData>
</VTKFile>
