<?xml version="1.0"?>
<VTKFile type="PolyData" version="0.1" byte_order="LittleEndian" compressor="vtkZLibDataCompressor">
	<PolyData>
		<Piece NumberOfPoints="702" NumberOfVerts="0" NumberOfLines="0" NumberOfStrips="0" NumberOfPolys="1400">
		<PointData Normals="Normals">
		<DataArray type="Float32" Name="Normals" NumberOfComponents="3" format="ascii">
			-0.917026 -0.181218 -0.355278
			-0.800435 -0.558132 -0.218614
			-0.722621 -0.482898 -0.494600
			-0.885101  0.350266 -0.306448
			-0.544148 -0.358160 -0.758699
			-0.924223  0.303028 -0.232350
			-0.985175  0.150944 -0.081524
			-0.996028  0.046048  0.076207
			-0.646521 -0.744129 -0.168175
			-0.800202 -0.544209 -0.252020
			-0.979429 -0.060044  0.192650
			-0.783241 -0.621645  0.009545
			-0.735764 -0.350227 -0.579648
			-0.892036 -0.327476 -0.311499
			-0.935604  0.324170  0.139853
			-0.893197  0.397229 -0.210732
			-0.939486  0.263848  0.218518
			-0.802686 -0.189962 -0.565341
			-0.456851 -0.415270 -0.786662
			-0.970396  0.179552 -0.161531
			-0.939948  0.320353 -0.117779
			-0.761641  0.646419  0.045237
			-0.796836  0.473090  0.375817
			-0.612221 -0.782618  0.112674
			-0.807157 -0.587619  0.056591
			-0.914749 -0.403479 -0.020940
			-0.934520  0.042262  0.353391
			-0.764115  0.517824  0.384690
			-0.841187 -0.486394  0.236275
			-0.717962 -0.293569 -0.631148
			-0.872065 -0.279773 -0.401535
			-0.933514 -0.334980 -0.127827
			-0.830681  0.002324  0.556744
			-0.727641 -0.013478  0.685826
			-0.972934  0.202649 -0.111053
			-0.950482  0.022681  0.309950
			-0.967145  0.212307 -0.139844
			-0.674613 -0.039242  0.737128
			-0.971464 -0.177084  0.157796
			-0.647970 -0.582277 -0.491006
			-0.521303 -0.545387 -0.656351
			-0.907331  0.356286 -0.223182
			-0.581143  0.735757 -0.347756
			-0.553555  0.718608  0.420926
			-0.542845  0.839773 -0.010026
			-0.713203 -0.604110  0.355516
			-0.839124 -0.539379  0.070289
			-0.703121 -0.665589  0.250224
			-0.512128 -0.823664  0.243521
			-0.842800 -0.457149  0.284082
			-0.862624 -0.479783  0.160274
			-0.939677  0.167425  0.298288
			-0.836365  0.435656  0.332712
			-0.799161  0.523516  0.295418
			-0.575593  0.657246  0.486539
			-0.641645  0.674225  0.365667
			-0.989918 -0.017878  0.140507
			-0.689859 -0.627845 -0.360423
			-0.774544 -0.367475 -0.514824
			-0.910118 -0.302774 -0.282866
			-0.921660 -0.386732 -0.031327
			-0.566540 -0.504112  0.651846
			-0.760326 -0.127480  0.636909
			-0.296892 -0.456435  0.838762
			-0.773956 -0.091466  0.626598
			-0.860576 -0.123757  0.494057
			-0.879604  0.438013 -0.185583
			-0.822001  0.558112  0.113250
			-0.607736  0.662686  0.437611
			-0.675101  0.603667 -0.424056
			-0.597614 -0.477356  0.644196
			-0.381392 -0.880916  0.280228
			-0.454488 -0.817186  0.354467
			-0.365517  0.928383 -0.067102
			-0.292372  0.918148 -0.267439
			-0.572148  0.720012  0.392721
			-0.423178  0.848313  0.318254
			-0.663598 -0.716770  0.214193
			-0.670471 -0.726900  0.148611
			-0.878034 -0.466607 -0.106462
			-0.893977 -0.425334 -0.141052
			-0.701611 -0.701467 -0.125243
			-0.878749 -0.471736 -0.072564
			-0.540181 -0.825608  0.163018
			-0.877119 -0.474900  0.071637
			-0.979834 -0.198294  0.024582
			-0.764424 -0.620453  0.175197
			-0.730924 -0.625566  0.272796
			-0.776913 -0.629459 -0.013713
			-0.747383  0.659125  0.083503
			-0.598918  0.796154  0.086233
			-0.556773  0.661782  0.502045
			-0.410226  0.815467  0.408323
			-0.999725 -0.023112 -0.003884
			-0.748749  0.656910  0.088563
			-0.773703 -0.605501 -0.186419
			-0.492516 -0.662938  0.563863
			-0.884395 -0.281286 -0.372457
			-0.946146 -0.294189 -0.135130
			-0.636625 -0.080460  0.766965
			-0.504425 -0.552370  0.663658
			-0.402835 -0.745043  0.531635
			-0.766074 -0.031860  0.641962
			-0.114643 -0.446111  0.887605
			-0.346230 -0.563068  0.750386
			-0.475878  0.045239  0.878347
			-0.535925 -0.029512  0.843750
			-0.606112  0.215979  0.765494
			-0.414749  0.894262 -0.168162
			-0.278946  0.929380  0.241746
			-0.298273  0.559285  0.773456
			-0.027965  0.985746  0.165898
			-0.016058  0.888599  0.458404
			-0.192377 -0.490146  0.850146
			-0.312867 -0.499445  0.807879
			-0.089012  0.821638  0.563016
			-0.091076  0.957155  0.274882
			-0.057333  0.995235  0.078868
			-0.313646  0.811573  0.492925
			-0.259067  0.850448  0.457845
			-0.051295  0.796599  0.602328
			-0.423053 -0.889949 -0.170346
			-0.597953 -0.787370 -0.150001
			-0.353237 -0.877779 -0.323618
			-0.882066 -0.468972 -0.044990
			-0.884901 -0.389465 -0.255473
			-0.756855 -0.439894 -0.483388
			-0.607595 -0.648461 -0.458615
			-0.978972 -0.093704 -0.181202
			-0.994625  0.043884 -0.093786
			-0.997665  0.056466 -0.038408
			-0.972858  0.224107 -0.057642
			-0.783593 -0.522983 -0.335367
			-0.581594 -0.703897 -0.407771
			-0.491601  0.863444 -0.113103
			-0.277298  0.960683 -0.013954
			 0.191303  0.959242  0.207984
			 0.269565  0.960967  0.062269
			-0.862265  0.506325  0.011628
			-0.317703  0.890903 -0.324587
			-0.277418  0.952095 -0.128667
			-0.523744  0.820043  0.230699
			-0.719869 -0.466149  0.514290
			-0.914380 -0.381283 -0.136131
			-0.408643 -0.588603  0.697536
			-0.127751 -0.655258  0.744525
			-0.270302 -0.463807  0.843694
			-0.934750 -0.259668 -0.242516
			-0.768974 -0.549158 -0.327267
			-0.349741 -0.228533  0.908545
			-0.440580  0.099575  0.892174
			-0.355236 -0.618340  0.701045
			-0.317815 -0.589061  0.742967
			-0.390981 -0.572480  0.720695
			-0.268948  0.528646  0.805109
			 0.003801  0.996044  0.088780
			 0.086895  0.904935  0.416584
			-0.083523  0.416056  0.905495
			 0.181372  0.402913  0.897087
			 0.075576  0.791454  0.606538
			 0.031678  0.867585  0.496280
			-0.073297  0.985927  0.150254
			 0.138776  0.915852  0.376772
			 0.100536  0.838827  0.535035
			-0.271315 -0.845744 -0.459463
			-0.328862 -0.760077 -0.560475
			-0.165330 -0.861048 -0.480898
			-0.883019 -0.268726 -0.384791
			-0.688624 -0.297352 -0.661346
			-0.449980 -0.155032 -0.879479
			-0.331588 -0.401727 -0.853618
			-0.863851  0.256205 -0.433728
			-0.849647  0.471116 -0.236959
			-0.906727  0.392215 -0.154964
			-0.742964  0.668654 -0.030109
			-0.542183 -0.572808 -0.614759
			-0.529088 -0.641578 -0.555377
			-0.081148  0.970547 -0.226835
			 0.215782  0.969865  0.113141
			 0.495292  0.862637 -0.102683
			 0.473861  0.872911 -0.116115
			 0.095680  0.924764 -0.368316
			-0.021312  0.869665 -0.493182
			-0.130827  0.920904 -0.367178
			-0.154604  0.987406 -0.033557
			-0.391417  0.912436  0.119385
			-0.859073 -0.370068  0.353615
			-0.432550 -0.363374  0.825142
			-0.947822 -0.256291 -0.189602
			-0.084933 -0.627342  0.774099
			-0.176778 -0.698807  0.693122
			 0.188794 -0.595675  0.780723
			 0.208888 -0.642295  0.737443
			 0.314197 -0.621905  0.717297
			-0.154241 -0.376989  0.913285
			 0.131233 -0.442668  0.887030
			-0.843488 -0.351085 -0.406531
			-0.445370 -0.611834 -0.653685
			-0.260518  0.116027  0.958472
			-0.049784 -0.168908  0.984374
			-0.132177 -0.332523  0.933787
			 0.113851 -0.343943  0.932063
			 0.116341  0.978603  0.169707
			 0.539004 -0.049989  0.840818
			-0.124054  0.091453  0.988052
			 0.117063  0.094575  0.988611
			 0.302846  0.029995  0.952568
			 0.039697  0.876786  0.479240
			-0.099715  0.903304  0.417250
			-0.089901  0.950036  0.298915
			 0.336282  0.734656  0.589232
			 0.208669  0.927266  0.310861
			-0.152777 -0.574282 -0.804275
			-0.247264 -0.603801 -0.757816
			-0.156683 -0.691992 -0.704697
			-0.119171 -0.613041 -0.781011
			-0.585711 -0.063602 -0.808020
			-0.359409 -0.091641 -0.928669
			-0.215162 -0.016248 -0.976443
			-0.194966  0.042045 -0.979908
			-0.246911  0.019976 -0.968832
			-0.097271 -0.114887 -0.988605
			-0.565851  0.382246 -0.730548
			-0.709093  0.613931 -0.346808
			-0.694227  0.715451 -0.078609
			-0.575277  0.810251 -0.112027
			-0.279689 -0.672106 -0.685601
			-0.146610  0.983923  0.101990
			 0.051694  0.979754 -0.193418
			-0.034814  0.904288  0.425502
			 0.281374  0.934775 -0.216851
			 0.597503  0.797798 -0.080682
			 0.536698  0.832376 -0.138221
			 0.405550  0.883856 -0.233084
			 0.205159  0.887151 -0.413368
			 0.042484  0.997793 -0.051039
			-0.286622  0.950867  0.117045
			-0.973372 -0.217400  0.072697
			-0.783965 -0.206692  0.585387
			-0.475201 -0.181074  0.861044
			-0.073578 -0.307947  0.948554
			-0.978394 -0.070100 -0.194502
			 0.326190 -0.399816  0.856590
			 0.428392 -0.440580  0.788904
			 0.563562 -0.404512  0.720255
			 0.510205 -0.618488  0.597632
			 0.560439 -0.590977  0.580220
			 0.360896 -0.220759  0.906102
			-0.885928 -0.172433 -0.430580
			-0.610607 -0.341056 -0.714731
			-0.157494 -0.668100 -0.727213
			-0.237352 -0.540716 -0.807026
			 0.231328 -0.177475  0.956551
			 0.192193 -0.317017  0.928742
			 0.391927 -0.347243  0.851948
			-0.245449  0.956553  0.157358
			 0.666086 -0.265047  0.697195
			 0.446004 -0.350132  0.823704
			 0.259116 -0.044435  0.964824
			-0.008392  0.969791  0.243793
			 0.102616  0.945749  0.308267
			-0.234784  0.944418  0.230111
			 0.764717 -0.143801  0.628115
			 0.806168  0.313976  0.501509
			 0.485475  0.714284  0.504095
			-0.101678 -0.243370 -0.964589
			-0.019153 -0.506399 -0.862087
			-0.017761 -0.529250 -0.848280
			-0.048862 -0.640846 -0.766113
			 0.032628 -0.303049 -0.952416
			-0.295848  0.144796 -0.944197
			-0.235931  0.021190 -0.971539
			-0.229206  0.017071 -0.973228
			-0.134406  0.087220 -0.987080
			-0.096779  0.212838 -0.972283
			 0.057409  0.172343 -0.983363
			-0.258610  0.246625 -0.933968
			 0.254688  0.083401 -0.963420
			 0.126708 -0.094688 -0.987410
			-0.488021  0.584451 -0.648269
			-0.468680  0.867503 -0.166663
			-0.242818  0.962257  0.122887
			-0.158123  0.985843 -0.055770
			-0.180736  0.969864 -0.163395
			 0.108242  0.963050  0.246614
			 0.085722  0.958107  0.273281
			 0.030882  0.978448 -0.204171
			 0.514757  0.856488 -0.038128
			 0.277964  0.916474 -0.287771
			 0.215371  0.976364 -0.018107
			-0.029213  0.991318  0.128198
			 0.209121  0.962474  0.172953
			 0.471429  0.881131 -0.036910
			-0.836274 -0.177985  0.518620
			-0.991818 -0.112373  0.060568
			-0.479252 -0.172806  0.860497
			-0.156032 -0.158950  0.974879
			 0.189747 -0.115637  0.974999
			-0.970909 -0.072808 -0.228113
			 0.522311 -0.328404  0.786983
			 0.643141 -0.400410  0.652718
			 0.715190 -0.430198  0.550847
			 0.663219 -0.611183  0.431967
			 0.681557 -0.041336  0.730597
			 0.687615 -0.545516  0.479165
			 0.533810  0.026109  0.845201
			-0.589165 -0.330356 -0.737393
			-0.867561 -0.171296 -0.466900
			-0.260018 -0.420673 -0.869152
			 0.096577 -0.652461 -0.751643
			 0.024648 -0.652116 -0.757719
			 0.057395 -0.575169 -0.816019
			 0.594260 -0.335141  0.731119
			 0.770245 -0.262039  0.581428
			 0.614967  0.779760  0.117434
			 0.657172  0.739540  0.145622
			 0.891180 -0.095365  0.443513
			 0.827551  0.475889  0.297809
			 0.241170 -0.319107 -0.916519
			 0.194208 -0.437846 -0.877823
			 0.258922 -0.540385 -0.800589
			 0.314049 -0.084222 -0.945664
			-0.384165  0.485593 -0.785249
			-0.154238  0.160426 -0.974923
			-0.125981  0.388053 -0.912986
			 0.166483  0.438268 -0.883292
			-0.021338  0.718459 -0.695242
			 0.430823  0.255027 -0.865651
			-0.179576  0.590006 -0.787175
			-0.263131  0.760597 -0.593510
			 0.426345  0.148052 -0.892362
			 0.488139  0.212629 -0.846469
			-0.337549  0.865030 -0.371192
			-0.155372  0.982563  0.102128
			 0.223326  0.974630 -0.014896
			 0.074064  0.950065 -0.303135
			-0.228128  0.950119 -0.212675
			 0.515084  0.857008 -0.014986
			 0.015975  0.877091 -0.480058
			 0.196273  0.932488 -0.303220
			 0.497866  0.673663 -0.546175
			-0.006841  0.962990  0.269449
			 0.317609  0.907731  0.274135
			 0.461232  0.864144  0.201297
			 0.781900  0.567384 -0.258280
			 0.626104  0.739545 -0.247117
			 0.548032  0.767547 -0.332463
			 0.782162  0.583177 -0.219378
			 0.815955  0.548677 -0.182130
			-0.891623 -0.202974  0.404734
			-0.595781 -0.151769  0.788677
			-0.986594 -0.160572 -0.029122
			-0.255853 -0.136212  0.957071
			 0.086197 -0.142588  0.986022
			 0.445176 -0.092701  0.890632
			-0.963748 -0.072124 -0.256883
			 0.696182 -0.319284  0.642953
			 0.762184 -0.380550  0.523695
			 0.867382 -0.188731  0.460467
			 0.766489 -0.449731  0.458516
			 0.744795 -0.527184  0.409094
			 0.771129 -0.452090  0.448302
			 0.754116 -0.092608  0.650179
			 0.749760  0.035777  0.660742
			 0.715140  0.013407  0.698853
			-0.224259 -0.368446 -0.902195
			-0.631617 -0.259410 -0.730593
			-0.875280 -0.106226 -0.471805
			 0.313036 -0.540366 -0.781033
			 0.272678 -0.537296 -0.798097
			 0.331970 -0.435939 -0.836512
			 0.141465 -0.315486 -0.938326
			 0.822944 -0.236938  0.516356
			 0.907145 -0.111664  0.405732
			 0.735324  0.677666 -0.008197
			 0.971470  0.092023  0.218583
			 0.554537 -0.144694 -0.819483
			 0.502199 -0.336146 -0.796745
			 0.592530 -0.399190 -0.699682
			 0.566037  0.077001 -0.820776
			-0.092336  0.840866 -0.533310
			 0.409532  0.534714 -0.739164
			 0.228006  0.839851 -0.492610
			 0.119259  0.982995 -0.139639
			 0.603555  0.412068 -0.682584
			-0.064495  0.974393 -0.215402
			-0.131222  0.991283  0.011744
			 0.673543  0.237882 -0.699823
			 0.627094  0.290795 -0.722628
			 0.562222  0.791464 -0.239773
			 0.429777  0.651243 -0.625439
			 0.578785  0.802270 -0.146183
			 0.028703  0.972613  0.230653
			 0.087712  0.905492  0.415200
			 0.186047  0.981585  0.043329
			 0.355514  0.932471 -0.064098
			 0.964075  0.261138 -0.048643
			 0.981075  0.158104 -0.111783
			 0.895491  0.329575 -0.299125
			 0.395665  0.858743 -0.325592
			 0.835374  0.340413 -0.431590
			 0.946527  0.179385 -0.268157
			 0.925299  0.229205 -0.302139
			-0.712732 -0.193322  0.674270
			-0.951125 -0.176707  0.253249
			-0.373299 -0.107751  0.921432
			-0.990024 -0.084368 -0.112848
			-0.036862 -0.113489  0.992855
			 0.366997 -0.127630  0.921425
			 0.666132 -0.139206  0.732728
			-0.939869 -0.101412 -0.326132
			 0.907299 -0.131667  0.399339
			 0.979829  0.177195  0.092396
			 0.902613 -0.002862  0.430443
			 0.935484 -0.198763  0.292170
			 0.986696  0.147907  0.067482
			 0.929818 -0.264300  0.256094
			 0.922088 -0.246502  0.298312
			 0.866502 -0.029924  0.498276
			 0.779558 -0.097632  0.618674
			 0.832246 -0.085998  0.547696
			-0.451343 -0.253114 -0.855700
			-0.163865 -0.241263 -0.956525
			-0.769863 -0.165191 -0.616460
			 0.578557 -0.330825 -0.745538
			 0.587294 -0.198637 -0.784620
			 0.554114 -0.124362 -0.823099
			-0.007693 -0.118945 -0.992871
			 0.282388  0.009835 -0.959250
			 0.438195 -0.031884 -0.898314
			 0.939409 -0.094290  0.329577
			 0.990950 -0.036703  0.129116
			 0.829509 -0.069492 -0.554153
			 0.833005 -0.205013 -0.513879
			 0.826833 -0.125775 -0.548204
			 0.882688  0.116842 -0.455202
			 0.395001  0.909050 -0.132672
			 0.308526  0.943199 -0.123233
			 0.985986  0.089579  0.140739
			 0.963208  0.249088 -0.100918
			 0.888345  0.340234 -0.308358
			 0.931534  0.210552 -0.296499
			-0.597861 -0.122449  0.792192
			-0.888223 -0.162767  0.429612
			-0.994040 -0.105215  0.028551
			-0.231122 -0.084133  0.969280
			-0.967436 -0.069397 -0.243415
			 0.118117 -0.140659  0.982987
			 0.437247 -0.098231  0.893961
			 0.707463 -0.056171  0.704515
			-0.871438 -0.131072 -0.472668
			 0.991505  0.060406  0.115193
			 0.990588  0.125697  0.054187
			 0.902063  0.383810 -0.197412
			 0.915152  0.297031 -0.272524
			 0.998321  0.009283  0.057177
			 0.999316  0.036393 -0.006567
			 0.931210  0.243781 -0.270958
			 0.999662  0.016174  0.020374
			 0.812762 -0.054783  0.580014
			 0.991738 -0.004636  0.128200
			 0.796044 -0.072024  0.600938
			 0.765748 -0.025168  0.642648
			-0.295956 -0.201352 -0.933738
			-0.623892 -0.175425 -0.761568
			-0.106295 -0.160245 -0.981337
			 0.765723  0.007282 -0.643129
			 0.771025  0.218946 -0.597983
			 0.743898  0.173404 -0.645404
			 0.152095 -0.026045 -0.988023
			 0.662154  0.051139 -0.747621
			 0.575192  0.071537 -0.814884
			 0.717986  0.099080 -0.688970
			 0.935158  0.056710 -0.349663
			 0.889834 -0.054204 -0.453053
			 0.857473  0.130423 -0.497724
			 0.978813  0.150467 -0.138870
			 0.919210  0.211717 -0.332007
			-0.396822 -0.103027  0.912095
			-0.773941 -0.078452  0.628380
			-0.966879 -0.065423  0.246710
			-0.990227 -0.085751 -0.109990
			 0.010070 -0.161143  0.986880
			-0.933695 -0.110897 -0.340465
			 0.344434 -0.182671  0.920868
			 0.621753 -0.055636  0.781235
			 0.793996  0.041842  0.606481
			-0.773525 -0.164929 -0.611929
			 0.936578  0.206736 -0.282986
			 0.810960  0.356573 -0.463897
			 0.953478  0.024688 -0.300450
			 0.932596  0.088648 -0.349865
			 0.975927  0.074029 -0.205149
			 0.910989  0.015138 -0.412152
			 0.913261 -0.026025  0.406544
			 0.998472  0.054183 -0.010878
			 0.860110 -0.082371  0.503414
			 0.759593  0.056355  0.647952
			-0.167075 -0.107996 -0.980012
			-0.259256 -0.174768 -0.949864
			-0.495795 -0.188637 -0.847705
			-0.042628 -0.085159 -0.995455
			 0.348888 -0.019420 -0.936963
			 0.902214  0.074258 -0.424847
			 0.756188  0.040811 -0.653081
			-0.462707 -0.167416  0.870559
			-0.077078 -0.180605  0.980531
			-0.846398 -0.050065  0.530192
			-0.995987 -0.005670  0.089316
			-0.974127 -0.038926 -0.222622
			 0.259581 -0.129739  0.956967
			-0.878966 -0.104192 -0.465363
			 0.633237 -0.086249  0.769137
			 0.776916 -0.006317  0.629573
			-0.617518 -0.208306 -0.758472
			 0.996223 -0.032395  0.080559
			 0.968744  0.005210 -0.248006
			 0.919989 -0.155277  0.359873
			 0.983853 -0.178905 -0.005164
			-0.171140 -0.097492 -0.980411
			 0.108808 -0.158337 -0.981372
			-0.318771 -0.234508 -0.918363
			 0.617025 -0.190153 -0.763624
			 0.898269 -0.151823 -0.412387
			-0.475337 -0.070481  0.876976
			-0.026258 -0.118265  0.992635
			-0.792590 -0.029285  0.609051
			-0.975003  0.023877  0.220904
			-0.990353  0.067327 -0.121115
			-0.925702  0.006336 -0.378200
			 0.424732 -0.138308  0.894692
			-0.732237 -0.100970 -0.673523
			 0.738396 -0.081351  0.669443
			 0.892751 -0.113952  0.435901
			-0.376901 -0.246755 -0.892781
			 0.983322 -0.178798  0.033312
			 0.891866 -0.252931 -0.374968
			-0.177048 -0.191071 -0.965477
			 0.102355 -0.153865 -0.982776
			 0.554557 -0.273300 -0.785986
			-0.618672 -0.047233  0.784228
			-0.226389 -0.056734  0.972383
			 0.167188 -0.137355  0.976310
			-0.888985 -0.005841  0.457899
			-0.996721  0.031587  0.074495
			-0.970802  0.025781 -0.238493
			-0.793800 -0.094253 -0.600831
			 0.482450 -0.190632  0.854928
			 0.704760 -0.107321  0.701282
			-0.485307 -0.163554 -0.858910
			 0.870306 -0.141260  0.471819
			 0.962459 -0.225402  0.151219
			-0.255452 -0.187480 -0.948470
			 0.960070 -0.219625 -0.173291
			 0.803558 -0.240728 -0.544375
			 0.031158 -0.225468 -0.973752
			 0.445930 -0.232243 -0.864413
			-0.693728 -0.056565  0.718013
			-0.342494 -0.066959  0.937131
			 0.067170 -0.095280  0.993182
			 0.411668 -0.167514  0.895806
			-0.924296 -0.053790  0.377867
			-0.999361 -0.029291 -0.020470
			-0.934162 -0.040114 -0.354588
			-0.755980 -0.097584 -0.647280
			-0.447051 -0.112287 -0.887433
			 0.688483 -0.185124  0.701227
			 0.867893 -0.109643  0.484500
			 0.969823 -0.184251  0.159669
			 0.951497 -0.234811 -0.198788
			-0.151120 -0.121540 -0.981015
			 0.740181 -0.259079 -0.620492
			 0.371350 -0.233922 -0.898543
			-0.453098 -0.132252  0.881596
			-0.770927 -0.093207  0.630066
			-0.069924 -0.120836  0.990207
			 0.276129 -0.081667  0.957645
			 0.601245 -0.139314  0.786827
			-0.971009 -0.064403  0.230202
			-0.985197 -0.060523 -0.160386
			-0.882783 -0.036712 -0.468343
			-0.682344 -0.057498 -0.728767
			-0.359112  0.051312 -0.931883
			-0.450620  0.011439 -0.892643
			 0.774011 -0.121673  0.621371
			 0.977986 -0.145387  0.149688
			 0.886902 -0.115708  0.447233
			 0.950236 -0.216257 -0.224241
			 0.319530 -0.154342 -0.934922
			-0.174230 -0.061258 -0.982798
			 0.739315 -0.228962 -0.633237
			-0.573694 -0.074312  0.815692
			-0.205227 -0.089792  0.974587
			-0.883668 -0.033024  0.466948
			 0.166404 -0.094175  0.981550
			 0.496895 -0.056798  0.865950
			 0.726705 -0.091372  0.680846
			-0.998645 -0.036415  0.037174
			-0.951850 -0.050192 -0.302428
			-0.825774 -0.061143 -0.560677
			-0.595862 -0.059780 -0.800859
			-0.369092 -0.031580 -0.928856
			-0.187648 -0.082633 -0.978754
			 0.855398 -0.126298  0.502337
			 0.968328 -0.159776  0.191865
			 0.952241 -0.192826 -0.236760
			 0.698381 -0.211972 -0.683617
			 0.216956 -0.189575 -0.957597
			-0.723361 -0.019974  0.690181
			-0.276006 -0.013939  0.961055
			 0.110763 -0.051537  0.992510
			-0.972964 -0.065538  0.221461
			 0.462495 -0.079002  0.883095
			 0.700563 -0.049202  0.711892
			 0.896744 -0.150003  0.416351
			-0.983976 -0.052668 -0.170343
			-0.887540 -0.052025 -0.457785
			-0.679209 -0.092455 -0.728098
			-0.394454 -0.118034 -0.911303
			-0.143001 -0.119750 -0.982451
			 0.424073 -0.139252 -0.894858
			 0.983829 -0.177994  0.019989
			 0.883384 -0.190836 -0.428034
			-0.391717  0.025379  0.919736
			-0.765861  0.019908  0.642697
			-0.954447 -0.014304  0.298039
			 0.049156 -0.046658  0.997701
			 0.387579 -0.101185  0.916267
			-0.994438 -0.026855 -0.101843
			 0.687467 -0.116394  0.716828
			 0.873671 -0.115462  0.472619
			 0.977423 -0.187915  0.096604
			-0.913169  0.021399 -0.407020
			-0.727743  0.023109 -0.685460
			-0.427627 -0.079172 -0.900482
			-0.178060 -0.125272 -0.976013
			 0.185371 -0.149290 -0.971262
			 0.678293 -0.181094 -0.712126
			 0.912095 -0.164366 -0.375588
			-0.620809 -0.044651  0.782689
			-0.151443 -0.045431  0.987422
			-0.917438 -0.039892  0.395874
			-0.999121 -0.010886 -0.040484
			 0.242663 -0.107565  0.964129
			 0.525961 -0.125676  0.841172
			-0.921225  0.034781 -0.387471
			 0.866529 -0.060553  0.495439
			 0.718399 -0.071317  0.691965
			 0.982747 -0.123130  0.138012
			 0.920622 -0.219606 -0.322843
			-0.711088  0.043191 -0.701775
			-0.422920 -0.062738 -0.903993
			-0.138506 -0.233176 -0.962520
			 0.127588 -0.318246 -0.939383
			 0.596624 -0.229883 -0.768891
			-0.306528 -0.084215  0.948129
			-0.725472 -0.118678  0.677943
			 0.125002 -0.067557  0.989854
			-0.952758 -0.121543  0.278351
			-0.942333 -0.021185 -0.334005
			-0.994466 -0.080013 -0.068083
			 0.394167 -0.084490  0.915147
			 0.622251 -0.053339  0.780998
			-0.742469 -0.037619 -0.668823
			 0.820892 -0.060652  0.567853
			 0.959776 -0.110704  0.258021
			 0.976836 -0.157796 -0.144540
			 0.518881 -0.257511 -0.815139
			-0.413392 -0.070103 -0.907851
			-0.141697 -0.134254 -0.980764
			-0.345042 -0.096013  0.933664
			 0.104162 -0.050561  0.993274
			-0.756655 -0.116241  0.643399
			 0.436747 -0.047660  0.898321
			-0.967548 -0.121322  0.221657
			-0.979755 -0.107199 -0.169080
			-0.840541 -0.091554 -0.533956
			 0.710447 -0.061087  0.701094
			-0.582322 -0.103430 -0.806352
			 0.890249 -0.111716  0.441562
			 0.988492 -0.115813  0.097322
			 0.906759 -0.196170 -0.373236
			 0.543234 -0.303533 -0.782792
			 0.126402 -0.276947 -0.952535
			-0.133165 -0.185402 -0.973598
			-0.345964 -0.049397 -0.936946
			-0.178180 -0.679473  0.711736
			 0.276604 -0.736139  0.617729
			 0.474613 -0.801514  0.363756
			-0.725823 -0.457109  0.514036
			 0.622379 -0.660983  0.419221
			-0.496695 -0.867866  0.010123
			-0.590718 -0.661575 -0.461921
			-0.267790 -0.943022 -0.197478
			-0.363544 -0.617494 -0.697522
			 0.723470 -0.632682  0.276233
			-0.030893 -0.704683 -0.708849
			 0.776534 -0.624387  0.084473
			 0.907213 -0.377001 -0.186640
			 0.556924 -0.580157 -0.594351
			 0.276945 -0.738796 -0.614396
			 0.144867 -0.685589 -0.713429
		</DataArray>
	</PointData>
	<Points>
		<DataArray type="Float32" NumberOfComponents="3" format="ascii">
			-0.026140 -0.042238  0.003302
			-0.025246 -0.041088 -0.000561
			-0.021773 -0.046708  0.002235
			-0.030747 -0.047819  0.010011
			-0.024794 -0.048293  0.005949
			-0.027135 -0.044177  0.006654
			-0.026697 -0.037519  0.004504
			-0.026716 -0.037060  0.001358
			-0.023293 -0.040991 -0.004204
			-0.019823 -0.045317 -0.003456
			-0.027741 -0.035738 -0.002094
			-0.026594 -0.039016 -0.004905
			-0.021535 -0.050067  0.004173
			-0.018827 -0.048311 -0.002159
			-0.028453 -0.044377  0.013639
			-0.028411 -0.043571  0.009047
			-0.031007 -0.048191  0.012441
			-0.031195 -0.051198  0.009750
			-0.024549 -0.051646  0.007856
			-0.027013 -0.041563  0.007516
			-0.026717 -0.036403  0.007649
			-0.025585 -0.035323  0.004869
			-0.025693 -0.033847  0.001702
			-0.023133 -0.040897 -0.008192
			-0.019725 -0.044512 -0.010324
			-0.018143 -0.047415 -0.007800
			-0.027992 -0.034052 -0.005302
			-0.026697 -0.032146 -0.001740
			-0.029703 -0.035923 -0.008994
			-0.022051 -0.053770  0.006584
			-0.018899 -0.051882  0.000605
			-0.017221 -0.050342 -0.007359
			-0.027111 -0.044024  0.017613
			-0.029423 -0.047875  0.015110
			-0.027238 -0.041065  0.010592
			-0.026756 -0.035150  0.017076
			-0.027306 -0.034568  0.013766
			-0.030443 -0.051425  0.014388
			-0.031436 -0.051611  0.012617
			-0.030025 -0.054101  0.010831
			-0.025143 -0.055342  0.009920
			-0.026879 -0.035419  0.010749
			-0.024536 -0.033362  0.008354
			-0.022096 -0.032045  0.002840
			-0.020128 -0.032173  0.006597
			-0.021178 -0.044492 -0.015547
			-0.028761 -0.041005 -0.022434
			-0.028351 -0.038413 -0.011735
			-0.025268 -0.041068 -0.013597
			-0.019208 -0.047097 -0.014352
			-0.017664 -0.049760 -0.014120
			-0.030419 -0.033736 -0.009201
			-0.027303 -0.031370 -0.005066
			-0.029457 -0.031873 -0.008886
			-0.021054 -0.029077  0.000045
			-0.025165 -0.029318 -0.004383
			-0.030895 -0.033609 -0.012492
			-0.023320 -0.057833  0.009597
			-0.019737 -0.055859  0.004351
			-0.016726 -0.053848 -0.003208
			-0.015986 -0.052806 -0.009976
			-0.023919 -0.046265  0.019806
			-0.024603 -0.043389  0.020631
			-0.023746 -0.049066  0.016516
			-0.023482 -0.040090  0.022100
			-0.025707 -0.034781  0.020548
			-0.026628 -0.031576  0.014001
			-0.026627 -0.031312  0.017145
			-0.025839 -0.031859  0.020532
			-0.025169 -0.032238  0.011308
			-0.029984 -0.054441  0.014028
			-0.028392 -0.056368  0.012567
			-0.023361 -0.058112  0.011949
			-0.016674 -0.028677  0.010846
			-0.022512 -0.030139  0.012155
			-0.012172 -0.025102  0.005994
			-0.010781 -0.025315  0.009569
			-0.025405 -0.045415 -0.021957
			-0.022255 -0.047569 -0.020700
			-0.028281 -0.040607 -0.024386
			-0.027787 -0.042186 -0.028392
			-0.026051 -0.045011 -0.027815
			-0.029722 -0.039171 -0.024841
			-0.026848 -0.041042 -0.017711
			-0.029436 -0.039344 -0.018367
			-0.030358 -0.036996 -0.021780
			-0.029165 -0.039207 -0.015138
			-0.019089 -0.049951 -0.017352
			-0.016807 -0.052235 -0.017950
			-0.029709 -0.031810 -0.012107
			-0.022899 -0.026195 -0.006793
			-0.012989 -0.023483  0.002608
			-0.011574 -0.019977 -0.000066
			-0.031068 -0.033322 -0.015686
			-0.030330 -0.031363 -0.015440
			-0.020454 -0.059900  0.009079
			-0.019891 -0.059910  0.011133
			-0.018748 -0.058827  0.005388
			-0.014872 -0.055634 -0.009750
			-0.021216 -0.042531  0.024708
			-0.019514 -0.045164  0.025234
			-0.019297 -0.047848  0.021046
			-0.022632 -0.042945  0.022974
			-0.022825 -0.051864  0.015801
			-0.020005 -0.050885  0.016817
			-0.019004 -0.039486  0.025748
			-0.022140 -0.036449  0.024793
			-0.023390 -0.033367  0.023663
			-0.024802 -0.029975  0.014584
			-0.024813 -0.030292  0.017720
			-0.020773 -0.032120  0.024007
			-0.010392 -0.030966  0.022218
			 0.000873 -0.030981  0.027901
			-0.020791 -0.054187  0.014693
			-0.018639 -0.056524  0.014119
			-0.010321 -0.027184  0.012842
			-0.016595 -0.029099  0.014010
			-0.021643 -0.029547  0.015573
			-0.009086 -0.021478  0.003842
			-0.008571 -0.023231  0.007133
			-0.008623 -0.025196  0.010244
			-0.022622 -0.046898 -0.027992
			-0.019728 -0.049843 -0.020539
			-0.018019 -0.048550 -0.026193
			-0.028534 -0.040465 -0.026530
			-0.028600 -0.040108 -0.029952
			-0.027248 -0.041787 -0.031275
			-0.025078 -0.044210 -0.031622
			-0.030543 -0.036129 -0.028117
			-0.030695 -0.034786 -0.025010
			-0.030714 -0.033216 -0.018718
			-0.030378 -0.032018 -0.021747
			-0.014570 -0.054255 -0.021067
			-0.015643 -0.051211 -0.023078
			-0.017068 -0.023081 -0.008092
			-0.011239 -0.018999 -0.003097
			-0.009274 -0.019897  0.000653
			-0.009157 -0.019216 -0.002448
			-0.030141 -0.030216 -0.018515
			-0.014398 -0.022036 -0.010392
			-0.020068 -0.026388 -0.015341
			-0.028278 -0.028808 -0.017923
			-0.018225 -0.062480  0.010954
			-0.018781 -0.062400  0.008311
			-0.011488 -0.054347  0.019449
			-0.005255 -0.055441  0.021913
			-0.008126 -0.059288  0.017435
			-0.015093 -0.059281 -0.006830
			-0.013600 -0.057340 -0.019043
			-0.015780 -0.044022  0.027974
			-0.014150 -0.040222  0.028561
			-0.014778 -0.046705  0.026500
			-0.010250 -0.048305  0.027573
			-0.018082 -0.053301  0.016160
			-0.015499 -0.032009  0.026326
			-0.006941 -0.031061  0.020152
			 0.004925 -0.030805  0.027003
			-0.002572 -0.033170  0.029524
			 0.002931 -0.031749  0.028034
			-0.003626 -0.027757  0.011784
			-0.005057 -0.029389  0.014468
			 0.004251 -0.031210  0.020504
			-0.005976 -0.021789  0.004812
			-0.005558 -0.023376  0.008073
			-0.021540 -0.046050 -0.031831
			-0.012261 -0.049196 -0.029393