<?xml version="1.0"?>
<VTKFile type="PolyData" version="0.1" byte_order="LittleEndian" compressor="vtkZLibDataCompressor">
	<PolyData>
		<Piece NumberOfPoints="702" NumberOfVerts="0" NumberOfLines="0" NumberOfStrips="0" NumberOfPolys="1400">
		<PointData Normals="Normals">
		<DataArray type="Float32" Name="Normals" NumberOfComponents="3" format="ascii">
			-0.886675  0.151861 -0.436745
			-0.932721 -0.231078 -0.276828
			-0.811014 -0.209388 -0.546273
			-0.659467  0.634676 -0.402851
			-0.578649 -0.178820 -0.795731
			-0.719212  0.610672 -0.331381
			-0.844793  0.503114 -0.182211
			-0.906827  0.420882 -0.022871
			-0.865257 -0.457310 -0.205419
			-0.924632 -0.220558 -0.310499
			-0.940798  0.324455  0.098122
			-0.958667 -0.280774 -0.046079
			-0.766220 -0.087547 -0.636587
			-0.922497  0.010225 -0.385869
			-0.750578  0.659744  0.037026
			-0.656555  0.687628 -0.310005
			-0.783146  0.610750  0.116903
			-0.768258  0.086683 -0.634244
			-0.517649 -0.266222 -0.813121
			-0.814110  0.518597 -0.261307
			-0.736030  0.640365 -0.219529
			-0.460619  0.886137 -0.050907
			-0.584475  0.761467  0.280280
			-0.870032 -0.486694  0.078568
			-0.971467 -0.237157 -0.002752
			-0.994821 -0.031836 -0.096526
			-0.873072  0.413140  0.258962
			-0.538031  0.791177  0.290795
			-0.978407 -0.118614  0.169264
			-0.724321 -0.045311 -0.687972
			-0.879002  0.040750 -0.475073
			-0.977847  0.031289 -0.206969
			-0.808257  0.351116  0.472691
			-0.729262  0.306660  0.611667
			-0.811607  0.544336 -0.212116
			-0.891841  0.398070  0.214850
			-0.800374  0.549141 -0.240510
			-0.694132  0.266443  0.668722
			-0.975134  0.210880  0.068139
			-0.780157 -0.328993 -0.532089
			-0.636539 -0.353546 -0.685437
			-0.684149  0.654218 -0.322396
			-0.229807  0.874466 -0.427198
			-0.270549  0.900420  0.340657
			-0.181274  0.979213 -0.091006
			-0.914301 -0.267322  0.304291
			-0.983714 -0.179636  0.006142
			-0.920147 -0.335086  0.202600
			-0.803476 -0.553256  0.219849
			-0.972515 -0.087725  0.215683
			-0.989765 -0.109626  0.091359
			-0.826086  0.527065  0.199463
			-0.631778  0.738731  0.234803
			-0.561260  0.803509  0.198396
			-0.319239  0.856383  0.405826
			-0.364322  0.888629  0.278583
			-0.930431  0.363837  0.043817
			-0.846192 -0.346588 -0.404767
			-0.813550 -0.084573 -0.575312
			-0.932025  0.041787 -0.359976
			-0.994035 -0.014454 -0.108095
			-0.764154 -0.209689  0.610000
			-0.798844  0.210160  0.563631
			-0.511956 -0.253939  0.820619
			-0.796950  0.247864  0.550848
			-0.878774  0.241477  0.411637
			-0.630516  0.721951 -0.285020
			-0.555058  0.831697  0.013812
			-0.343013  0.870144  0.353824
			-0.360614  0.782343 -0.507836
			-0.782067 -0.173827  0.598461
			-0.707490 -0.652688  0.271027
			-0.756483 -0.561339  0.335608
			 0.020264  0.990847 -0.133457
			 0.099386  0.940388 -0.325257
			-0.284979  0.906768  0.310738
			-0.093194  0.964550  0.246898
			-0.900315 -0.399667  0.172337
			-0.905403 -0.410907  0.106770
			-0.978273 -0.109744 -0.175893
			-0.974632 -0.067961 -0.213247
			-0.903211 -0.394302 -0.169515
			-0.983507 -0.111931 -0.142074
			-0.823833 -0.550004  0.137096
			-0.994398 -0.105691  0.001618
			-0.980553  0.185366 -0.064464
			-0.953730 -0.275472  0.120477
			-0.932354 -0.286132  0.221007
			-0.953994 -0.291936 -0.068329
			-0.445637  0.895135 -0.011884
			-0.256987  0.966415  0.000722
			-0.301367  0.854580  0.422932
			-0.100689  0.935436  0.338853
			-0.930251  0.352870 -0.100577
			-0.448129  0.893942 -0.006909
			-0.928535 -0.282712 -0.240616
			-0.749303 -0.390263  0.535014
			-0.893204  0.045936 -0.447300
			-0.973458  0.073243 -0.216828
			-0.677048  0.216120  0.703490
			-0.726103 -0.276785  0.629416
			-0.695247 -0.501965  0.514453
			-0.768271  0.301061  0.564909
			-0.343798 -0.309354  0.886625
			-0.591033 -0.340051  0.731468
			-0.489813  0.279691  0.825745
			-0.570837  0.230713  0.787983
			-0.536381  0.478710  0.695078
			-0.030224  0.970884 -0.237636
			 0.076488  0.980291  0.182150
			-0.122968  0.681379  0.721527
			 0.335166  0.933245  0.129296
			 0.286597  0.858797  0.424652
			-0.429266 -0.323490  0.843258
			-0.540605 -0.289818  0.789779
			 0.185811  0.831307  0.523836
			 0.257673  0.937843  0.232500
			 0.318446  0.947116  0.039548
			-0.019683  0.901395  0.432549
			 0.048102  0.914518  0.401675
			 0.208037  0.796689  0.567457
			-0.714341 -0.676009 -0.180908
			-0.838296 -0.514240 -0.181156
			-0.633461 -0.701301 -0.326962
			-0.987657 -0.106266 -0.115072
			-0.943775 -0.045962 -0.327377
			-0.827143 -0.156020 -0.539901
			-0.770537 -0.403124 -0.493724
			-0.924119  0.267799 -0.272556
			-0.893157  0.406823 -0.191746
			-0.895494  0.423343 -0.137374
			-0.807548  0.567766 -0.159712
			-0.894801 -0.212804 -0.392486
			-0.771542 -0.460672 -0.438754
			-0.117038  0.974911 -0.189344
			 0.109732  0.991271 -0.073077
			 0.524026  0.829448  0.193425
			 0.608155  0.791837  0.056060
			-0.603924  0.792006 -0.089458
			 0.070130  0.920810 -0.383655
			 0.115268  0.975593 -0.186898
			-0.189826  0.970143  0.150959
			-0.880455 -0.126485  0.456947
			-0.977121 -0.019262 -0.211812
			-0.654154 -0.343878  0.673670
			-0.424088 -0.507545  0.750032
			-0.490624 -0.270380  0.828361
			-0.941523  0.093608 -0.323684
			-0.891876 -0.241932 -0.382133
			-0.479677 -0.018674  0.877247
			-0.437731  0.317651  0.841124
			-0.616465 -0.391139  0.683360
			-0.574114 -0.375234  0.727731
			-0.633559 -0.334004  0.697885
			-0.109995  0.644211  0.756897
			 0.374349  0.925635  0.055337
			 0.390959  0.832498  0.392553
			 0.010474  0.477438  0.878603
			 0.250386  0.365484  0.896509
			 0.322744  0.744689  0.584187
			 0.319701  0.824053  0.467683
			 0.294648  0.949333  0.109312
			 0.446030  0.820455  0.357646
			 0.369276  0.774290  0.513917
			-0.535227 -0.711586 -0.455167
			-0.547964 -0.617662 -0.564118
			-0.441651 -0.766896 -0.465634
			-0.886214  0.056187 -0.459856
			-0.696363 -0.061859 -0.715019
			-0.405415 -0.034453 -0.913483
			-0.391818 -0.305166 -0.867959
			-0.665668  0.531105 -0.524227
			-0.586344  0.737857 -0.334318
			-0.675268  0.691834 -0.255694
			-0.429130  0.894583 -0.124777
			-0.669417 -0.368268 -0.645181
			-0.688031 -0.432737 -0.582539
			 0.310861  0.912466 -0.266029
			 0.557985  0.823668  0.101113
			 0.791794  0.605162 -0.082707
			 0.776972  0.621781 -0.098499
			 0.467519  0.794296 -0.387969
			 0.348448  0.778700 -0.521738
			 0.257120  0.875654 -0.408803
			 0.234516  0.968690 -0.081502
			-0.024138  0.998455  0.050045
			-0.959893  0.003625  0.280343
			-0.600693 -0.117992  0.790725
			-0.956402  0.105221 -0.272440
			-0.376316 -0.495771  0.782686
			-0.481817 -0.532942  0.695575
			-0.112435 -0.568582  0.814907
			-0.108236 -0.622147  0.775382
			-0.001837 -0.644108  0.764933
			-0.356089 -0.228862  0.905993
			-0.115747 -0.398319  0.909915
			-0.879310 -0.036246 -0.474868
			-0.591929 -0.443261 -0.673156
			-0.270608  0.269892  0.924083
			-0.186377 -0.070762  0.979927
			-0.320467 -0.194610  0.927053
			-0.097819 -0.297454  0.949712
			 0.465214  0.872841  0.147394
			 0.412746 -0.191103  0.890573
			-0.156411  0.198057  0.967630
			 0.067054  0.110684  0.991591
			 0.216672 -0.021075  0.976017
			 0.331906  0.828400  0.451213
			 0.218230  0.900943  0.375071
			 0.254186  0.932450  0.256761
			 0.542929  0.593326  0.594299
			 0.519921  0.800354  0.298523
			-0.296220 -0.528363 -0.795667
			-0.398135 -0.517115 -0.757681
			-0.352191 -0.628991 -0.693060
			-0.281736 -0.575216 -0.767953
			-0.501440  0.105779 -0.858702
			-0.294047 -0.013110 -0.955701
			-0.128746 -0.000666 -0.991677
			-0.087748  0.045429 -0.995106
			-0.144872  0.045233 -0.988416
			-0.056511 -0.136859 -0.988977
			-0.320055  0.515886 -0.794623
			-0.394058  0.809813 -0.434651
			-0.362677  0.916308 -0.169840
			-0.214451  0.957141 -0.194658
			-0.459546 -0.563229 -0.686725
			 0.230039  0.971670  0.054220
			 0.434235  0.873487 -0.220138
			 0.277803  0.878095  0.389583
			 0.630771  0.744265 -0.219540
			 0.859735  0.508415 -0.048684
			 0.821255  0.559258 -0.113009
			 0.727219  0.649556 -0.221875
			 0.557699  0.715441 -0.420851
			 0.421535  0.903275 -0.080018
			 0.087242  0.994575  0.056648
			-0.985575  0.168545 -0.015339
			-0.846673  0.142274  0.512741
			-0.573665  0.068999  0.816178
			-0.258272 -0.192846  0.946629
			-0.913601  0.288505 -0.286529
			 0.082636 -0.433795  0.897214
			 0.166659 -0.514366  0.841221
			 0.310300 -0.536313  0.784909
			 0.189474 -0.722497  0.664905
			 0.247580 -0.717055  0.651564
			 0.178690 -0.277861  0.943856
			-0.848824  0.143224 -0.508906
			-0.636858 -0.135118 -0.759049
			-0.342129 -0.608118 -0.716338
			-0.361256 -0.465825 -0.807775
			 0.071725 -0.185885  0.979950
			-0.015119 -0.302130  0.953147
			 0.163544 -0.410114  0.897251
			 0.124236  0.987143  0.100570
			 0.459514 -0.447324  0.767299
			 0.214499 -0.434970  0.874524
			 0.147180 -0.072680  0.986436
			 0.341117  0.916442  0.209223
			 0.429365  0.856991  0.284977
			 0.123823  0.976862  0.174379
			 0.601799 -0.376839  0.704152
			 0.823455  0.022346  0.566941
			 0.679379  0.512822  0.524841
			-0.111163 -0.252387 -0.961220
			-0.142777 -0.519574 -0.842411
			-0.151230 -0.540292 -0.827777
			-0.228605 -0.626255 -0.745348
			-0.010911 -0.357066 -0.934015
			-0.144568  0.180667 -0.972862
			-0.134079  0.042061 -0.990078
			-0.129311  0.035610 -0.990965
			-0.014214  0.064019 -0.997847
			 0.066966  0.167098 -0.983663
			 0.194630  0.071144 -0.978293
			-0.072413  0.261578 -0.962462
			 0.341253 -0.083658 -0.936241
			 0.157576 -0.202004 -0.966625
			-0.177998  0.679283 -0.711963
			-0.090217  0.966442 -0.240523
			 0.131493  0.989095  0.066340
			 0.232405  0.967054 -0.103895
			 0.213848  0.953449 -0.212613
			 0.445889  0.866704  0.223622
			 0.421181  0.872378  0.248119
			 0.415384  0.879347 -0.232822
			 0.802396  0.596567 -0.016401
			 0.626196  0.723801 -0.289811
			 0.570254  0.820932 -0.029691
			 0.339058  0.936307  0.091486
			 0.544395  0.823388  0.160209
			 0.771697  0.635669 -0.020233
			-0.878836  0.183881  0.440267
			-0.961809  0.271759 -0.032715
			-0.574222  0.078119  0.814964
			-0.279835 -0.022381  0.959787
			 0.055402 -0.111871  0.992177
			-0.905113  0.280930 -0.319137
			 0.295949 -0.445951  0.844714
			 0.390477 -0.566910  0.725356
			 0.453519 -0.628360  0.632047
			 0.346196 -0.784306  0.514794
			 0.556031 -0.243979  0.794546
			 0.389930 -0.729519  0.561922
			 0.436477 -0.118496  0.891878
			-0.611273 -0.134787 -0.779858
			-0.828637  0.134940 -0.543279
			-0.331811 -0.350548 -0.875795
			-0.100034 -0.690493 -0.716388
			-0.165755 -0.663643 -0.729454
			-0.101851 -0.608717 -0.786823
			 0.364075 -0.482918  0.796391
			 0.565681 -0.491404  0.662213
			 0.853628  0.498615  0.150674
			 0.875124  0.447477  0.184179
			 0.751104 -0.391947  0.531244
			 0.920389  0.150240  0.360989
			 0.172502 -0.447604 -0.877436
			 0.081166 -0.537187 -0.839549
			 0.095956 -0.651003 -0.752986
			 0.331041 -0.259679 -0.907182
			-0.109099  0.539674 -0.834775
			-0.005684  0.139985 -0.990137
			 0.101888  0.344086 -0.933394
			 0.388284  0.282980 -0.877017
			 0.306768  0.625182 -0.717664
			 0.561158  0.015703 -0.827560
			 0.119290  0.559451 -0.820234
			 0.091905  0.761634 -0.641457
			 0.518534 -0.083349 -0.850985
			 0.596438 -0.043682 -0.801470
			 0.045637  0.901156 -0.431086
			 0.221437  0.973704  0.053536
			 0.576695  0.816556 -0.025666
			 0.452125  0.830208 -0.326094
			 0.166486  0.949603 -0.265588
			 0.801100  0.598493  0.006640
			 0.384621  0.772493 -0.505294
			 0.558145  0.768167 -0.313679
			 0.756930  0.399373 -0.517261
			 0.337977  0.911314  0.235115
			 0.615809  0.738993  0.273257
			 0.737363  0.639936  0.216283
			 0.956163  0.214229 -0.199645
			 0.876937  0.432544 -0.209495
			 0.822203  0.481885 -0.302934
			 0.959376  0.231360 -0.161462
			 0.974559  0.189330 -0.119956
			-0.930502  0.173792  0.322431
			-0.668110  0.136361  0.731461
			-0.968310  0.219140 -0.119802
			-0.361866  0.034828  0.931580
			-0.051143 -0.097247  0.993945
			 0.306169 -0.192076  0.932399
			-0.896020  0.276918 -0.347080
			 0.470907 -0.512421  0.718103
			 0.517787 -0.601892  0.607966
			 0.692434 -0.468219  0.548913
			 0.500572 -0.671905  0.545867
			 0.455041 -0.738746  0.497185
			 0.504763 -0.676507  0.536239
			 0.609724 -0.324034  0.723352
			 0.653582 -0.202963  0.729134
			 0.610211 -0.208101  0.764419
			-0.276464 -0.317901 -0.906922
			-0.624034 -0.052827 -0.779609
			-0.810698  0.197660 -0.551090
			 0.144334 -0.669923 -0.728266
			 0.109611 -0.653129 -0.749272
			 0.205696 -0.584229 -0.785090
			 0.083639 -0.408378 -0.908973
			 0.628846 -0.492355  0.601781
			 0.762578 -0.415560  0.495766
			 0.935626  0.350619  0.040872
			 0.913660 -0.264002  0.309076
			 0.520050 -0.397134 -0.756196
			 0.397422 -0.553020 -0.732273
			 0.449266 -0.638565 -0.624815
			 0.614832 -0.196516 -0.763782
			 0.275150  0.775955 -0.567615
			 0.637775  0.290892 -0.713179
			 0.566978  0.657768 -0.495860
			 0.493591  0.854818 -0.160169
			 0.765763  0.108625 -0.633883
			 0.326782  0.910563 -0.253159
			 0.254028  0.966589 -0.034288
			 0.765573 -0.079828 -0.638377
			 0.744588 -0.015049 -0.667355
			 0.837156  0.504979 -0.210158
			 0.691804  0.398779 -0.601983
			 0.849261  0.515114 -0.115813
			 0.377408  0.904263  0.199677
			 0.392032  0.832616  0.391232
			 0.540427  0.840911  0.028392
			 0.686398  0.724723 -0.060293
			 0.991724 -0.122974  0.036895
			 0.973223 -0.228918 -0.020808
			 0.973884 -0.051011 -0.221240
			 0.715763  0.623758 -0.314022
			 0.932845 -0.027450 -0.359231
			 0.961578 -0.206905 -0.180437
			 0.963538 -0.155194 -0.217968
			-0.782824  0.133981  0.607647
			-0.963648  0.210086  0.165063
			-0.456596  0.102717  0.883725
			-0.936075  0.285204 -0.205968
			-0.154106 -0.023788  0.987768
			 0.218451 -0.192994  0.956573
			 0.504517 -0.328561  0.798442
			-0.879735  0.236188 -0.412651
			 0.755629 -0.434549  0.490094
			 0.963465 -0.196941  0.181519
			 0.797744 -0.311578  0.516260
			 0.764484 -0.514432  0.388489
			 0.960622 -0.228297  0.158387
			 0.737211 -0.575352  0.354247
			 0.733556 -0.553130  0.394895
			 0.748912 -0.318483  0.581120
			 0.633727 -0.340344  0.694662
			 0.692227 -0.354141  0.628813
			-0.445712 -0.123030 -0.886682
			-0.168327 -0.226605 -0.959331
			-0.724629  0.093829 -0.682722
			 0.465867 -0.573219 -0.674083
			 0.527084 -0.456927 -0.716519
			 0.527647 -0.378422 -0.760517
			 0.024875 -0.174465 -0.984349
			 0.338579 -0.161764 -0.926929
			 0.461685 -0.254583 -0.849726
			 0.804824 -0.416756  0.422578
			 0.889747 -0.396411  0.226293
			 0.781508 -0.412596 -0.467985
			 0.730204 -0.536499 -0.423051
			 0.757231 -0.463237 -0.460447
			 0.893522 -0.253501 -0.370615
			 0.719253  0.683615 -0.123873
			 0.651735  0.748232 -0.124061
			 0.932160 -0.276986  0.233147
			 0.990412 -0.137351 -0.014789
			 0.972055 -0.039094 -0.231476
			 0.961777 -0.174387 -0.211128
			-0.659188  0.164488  0.733767
			-0.914055  0.211378  0.346155
			-0.958657  0.277036 -0.065017
			-0.320251  0.074535  0.944396
			-0.899431  0.281741 -0.334134
			-0.020753 -0.107636  0.993974
			 0.296497 -0.193989  0.935125
			 0.576312 -0.269173  0.771628
			-0.816509  0.173190 -0.550743
			 0.928167 -0.307763  0.209254
			 0.956821 -0.251183  0.146287
			 0.992616  0.003580 -0.121243
			 0.977606 -0.086658 -0.191771
			 0.919572 -0.361523  0.153911
			 0.935719 -0.341153  0.089697
			 0.972096 -0.141811 -0.186864
			 0.926275 -0.358157  0.117207
			 0.683591 -0.315783  0.658016
			 0.902708 -0.367107  0.224389
			 0.660020 -0.324040  0.677770
			 0.646614 -0.266538  0.714736
			-0.276751 -0.138658 -0.950885
			-0.582653  0.019846 -0.812478
			-0.082602 -0.174932 -0.981109
			 0.758719 -0.323743 -0.565275
			 0.840368 -0.126951 -0.526938
			 0.801769 -0.162117 -0.575226
			 0.207066 -0.148092 -0.967054
			 0.687964 -0.251483 -0.680780
			 0.620740 -0.204604 -0.756848
			 0.753071 -0.224091 -0.618601
			 0.910906 -0.321598 -0.258506
			 0.835074 -0.414206 -0.362057
			 0.878721 -0.234396 -0.415822
			 0.970346 -0.236964 -0.047718
			 0.953614 -0.171091 -0.247686
			-0.475761  0.115267  0.871989
			-0.792140  0.260016  0.552183
			-0.935464  0.318446  0.153298
			-0.937007  0.284199 -0.203096
			-0.128434 -0.085829  0.987997
			-0.876526  0.224135 -0.425988
			 0.176805 -0.235473  0.955663
			 0.491529 -0.231362  0.839566
			 0.700880 -0.217605  0.679275
			-0.728259  0.095756 -0.678579
			 0.963930 -0.178895 -0.197069
			 0.918974 -0.005556 -0.394279
			 0.911830 -0.354739 -0.206702
			 0.920669 -0.291126 -0.260028
			 0.943842 -0.311064 -0.111363
			 0.877706 -0.355230 -0.321628
			 0.800625 -0.338607  0.494313
			 0.942020 -0.324684  0.084735
			 0.722732 -0.364229  0.587364
			 0.671443 -0.188484  0.716685
			-0.118928 -0.103748 -0.987468
			-0.231579 -0.128913 -0.964237
			-0.462869 -0.046200 -0.885222
			 0.005680 -0.130309 -0.991457
			 0.387061 -0.212220 -0.897300
			 0.893017 -0.298141 -0.337094
			 0.763409 -0.289849 -0.577230
			-0.557713  0.077584  0.826400
			-0.215675 -0.071600  0.973836
			-0.840560  0.306748  0.446503
			-0.927422  0.373930 -0.008100
			-0.895664  0.313818 -0.315124
			 0.115847 -0.152285  0.981524
			-0.813825  0.201360 -0.545108
			 0.491444 -0.264796  0.829678
			 0.665074 -0.254177  0.702190
			-0.589491 -0.012740 -0.807674
			 0.900011 -0.397701  0.178367
			 0.914446 -0.374922 -0.152389
			 0.761442 -0.463809  0.452866
			 0.839703 -0.534350  0.096790
			-0.118658 -0.092549 -0.988613
			 0.116466 -0.253746 -0.960234
			-0.311556 -0.159737 -0.936705
			 0.556091 -0.458785 -0.693022
			 0.802676 -0.504879 -0.317503
			-0.533097  0.172385  0.828306
			-0.146124 -0.032187  0.988742
			-0.789183  0.311151  0.529504
			-0.907083  0.402321  0.123846
			-0.878204  0.425050 -0.219296
			-0.821768  0.326989 -0.466665
			 0.269705 -0.226306  0.935973
			-0.661156  0.135252 -0.737956
			 0.598004 -0.306427  0.740604
			 0.746093 -0.410241  0.524450
			-0.371787 -0.147544 -0.916518
			 0.836266 -0.531444  0.135004
			 0.755526 -0.593429 -0.277530
			-0.160757 -0.175859 -0.971201
			 0.112315 -0.247304 -0.962407
			 0.468694 -0.513792 -0.718571
			-0.649228  0.241299  0.721302
			-0.305747  0.098317  0.947023
			 0.026271 -0.123414  0.992007
			-0.857436  0.358700  0.368968
			-0.912816  0.407656 -0.024159
			-0.866822  0.371348 -0.332746
			-0.721014  0.169458 -0.671880
			 0.306166 -0.299012  0.903800
			 0.554672 -0.315676  0.769862
			-0.442821 -0.027695 -0.896182
			 0.712256 -0.424644  0.558900
			 0.790202 -0.558724  0.251810
			-0.233001 -0.142000 -0.962053
			 0.815382 -0.574505 -0.071394
			 0.691881 -0.560558 -0.455056
			 0.018822 -0.286220 -0.957979
			 0.390189 -0.440451 -0.808551
			-0.716829  0.256294  0.648437
			-0.413937  0.129965  0.900980
			-0.051306 -0.045887  0.997628
			 0.246499 -0.248350  0.936782
			-0.901970  0.322157  0.287514
			-0.930967  0.345905 -0.116835
			-0.849018  0.288803 -0.442450
			-0.683801  0.149057 -0.714282
			-0.385891  0.003442 -0.922538
			 0.510157 -0.381537  0.770824
			 0.721035 -0.393649  0.570219
			 0.811943 -0.522854  0.259562
			 0.803705 -0.587054 -0.097082
			-0.109268 -0.122331 -0.986456
			 0.632384 -0.558946 -0.536349
			 0.323444 -0.416373 -0.849716
			-0.536364  0.107251  0.837144
			-0.795086  0.245351  0.554654
			-0.187175 -0.018365  0.982155
			 0.149285 -0.113992  0.982201
			 0.440453 -0.300679  0.845928
			-0.937604  0.319818  0.136436
			-0.918890  0.302226 -0.253576
			-0.791523  0.264988 -0.550703
			-0.594378  0.153013 -0.789495
			-0.239307  0.118747 -0.963655
			-0.341853  0.118820 -0.932211
			 0.619284 -0.360316  0.697610
			 0.834978 -0.490659  0.249128
			 0.739158 -0.408901  0.535206
			 0.811545 -0.571164 -0.123150
			 0.308670 -0.325845 -0.893615
			-0.107583 -0.058055 -0.992500
			 0.643998 -0.531637 -0.550117
			-0.620475  0.201538  0.757888
			-0.298940  0.059975  0.952386
			-0.863551  0.332175  0.379394
			 0.041509 -0.082832  0.995699
			 0.369389 -0.179920  0.911691
			 0.582542 -0.310532  0.751142
			-0.937483  0.342962 -0.059185
			-0.873197  0.289656 -0.391952
			-0.741054  0.214777 -0.636169
			-0.509901  0.113610 -0.852698
			-0.280181  0.046044 -0.958842
			-0.128374 -0.072511 -0.989071
			 0.701815 -0.403152  0.587302
			 0.817350 -0.497476  0.290613
			 0.823256 -0.551092 -0.136190
			 0.616619 -0.504007 -0.604779
			 0.202487 -0.321535 -0.924994
			-0.728123  0.299340  0.616630
			-0.334385  0.155709  0.929485
			 0.005534 -0.021811  0.999747
			-0.939156  0.318912  0.127597
			 0.327916 -0.186403  0.926134
			 0.572018 -0.259650  0.778060
			 0.737621 -0.446402  0.506597
			-0.914012  0.308359 -0.263621
			-0.802534  0.253328 -0.540153
			-0.604790  0.119554 -0.787360
			-0.337714 -0.023204 -0.940963
			-0.100999 -0.123813 -0.987152
			 0.407669 -0.348340 -0.844077
			 0.838073 -0.531794  0.121774
			 0.775369 -0.536436 -0.333226
			-0.422961  0.232605  0.875784
			-0.748500  0.348909  0.563924
			-0.908597  0.364548  0.203852
			-0.049828  0.006129  0.998739
			 0.247858 -0.176595  0.952565
			-0.919188  0.340790 -0.197371
			 0.534079 -0.316534  0.783942
			 0.725078 -0.401995  0.559161
			 0.822457 -0.533370  0.197689
			-0.802262  0.334259 -0.494617
			-0.609026  0.247484 -0.753551
			-0.354401  0.025891 -0.934735
			-0.135919 -0.115348 -0.983982
			 0.189702 -0.273380 -0.943015
			 0.612023 -0.469865 -0.636125
			 0.807809 -0.519158 -0.279142
			-0.650111  0.244375  0.719470
			-0.233531  0.081717  0.968909
			-0.891772  0.333656  0.305640
			-0.922211  0.361478 -0.137332
			 0.108105 -0.124969  0.986254
			 0.371990 -0.256180  0.892186
			-0.806133  0.350976 -0.476409
			 0.737544 -0.347004  0.579325
			 0.581625 -0.288130  0.760719
			 0.848719 -0.472649  0.237233
			 0.790630 -0.569850 -0.224000
			-0.584787  0.258706 -0.768827
			-0.343560  0.039096 -0.938317
			-0.141415 -0.229017 -0.963096
			 0.069876 -0.405804 -0.911285
			 0.522622 -0.488240 -0.698919
			-0.388181  0.101280  0.916001
			-0.766547  0.208038  0.607558
			 0.012793 -0.042154  0.999029
			-0.946180  0.263415  0.188030
			-0.850968  0.310764 -0.423413
			-0.941994  0.293935 -0.162020
			 0.260346 -0.163716  0.951534
			 0.492874 -0.229448  0.839302
			-0.646926  0.197984 -0.736403
			 0.689807 -0.325088  0.646903
			 0.822932 -0.444412  0.353949
			 0.852059 -0.521657 -0.043237
			 0.444051 -0.487795 -0.751581
			-0.337270  0.028455 -0.940978
			-0.105425 -0.137590 -0.984863
			-0.427037  0.103812  0.898255
			-0.000240 -0.018395  0.999831
			-0.791695  0.219615  0.570078
			 0.314877 -0.146746  0.937720
			-0.955335  0.265306  0.130181
			-0.930897  0.256440 -0.260132
			-0.768277  0.194005 -0.610011
			 0.577461 -0.275070  0.768684
			-0.513549  0.067813 -0.855376
			 0.744194 -0.406846  0.529766
			 0.859949 -0.470794  0.197080
			 0.790643 -0.546404 -0.276272
			 0.446541 -0.537285 -0.715490
			 0.085468 -0.368067 -0.925863
			-0.117513 -0.187603 -0.975190
			-0.264985  0.020374 -0.964037
			-0.477212 -0.513282  0.713310
			-0.072088 -0.742417  0.666048
			 0.105410 -0.894275  0.434926
			-0.882496 -0.115915  0.455813
			 0.290635 -0.815919  0.499807
			-0.787883 -0.615754 -0.009317
			-0.759694 -0.421796 -0.494927
			-0.589209 -0.785086 -0.190980
			-0.515228 -0.482119 -0.708591
			 0.405688 -0.837321  0.366486
			-0.240699 -0.688129 -0.684501
			 0.472636 -0.862543  0.180649
			 0.707992 -0.701139 -0.084570
			 0.339618 -0.785425 -0.517462
			 0.022874 -0.828588 -0.559391
			-0.071043 -0.736624 -0.672560
		</DataArray>
	</PointData>
	<Points>
		<DataArray type="Float32" NumberOfComponents="3" format="ascii">
			-0.022346 -0.042838  0.002709
			-0.021074 -0.041821 -0.001085
			-0.017919 -0.047349  0.002223
			-0.027614 -0.048179  0.009119
			-0.021296 -0.048802  0.005675
			-0.023673 -0.044660  0.006010
			-0.022992 -0.038079  0.003691
			-0.022702 -0.037727  0.000545
			-0.018775 -0.041851 -0.004522
			-0.015417 -0.046156 -0.003294
			-0.023379 -0.036521 -0.003033
			-0.021982 -0.039894 -0.005607
			-0.017889 -0.050642  0.004286
			-0.014567 -0.049106 -0.001807
			-0.025666 -0.044621  0.012836
			-0.025173 -0.043971  0.008246
			-0.028111 -0.048468  0.011523
			-0.028052 -0.051564  0.008929
			-0.021256 -0.052089  0.007709
			-0.023622 -0.042019  0.006792
			-0.023313 -0.036857  0.006781
			-0.021910 -0.035875  0.004090
			-0.021701 -0.034507  0.000880
			-0.018227 -0.041892 -0.008476
			-0.014646 -0.045584 -0.010143
			-0.013333 -0.048403 -0.007382
			-0.023308 -0.034944 -0.006305
			-0.022356 -0.032921 -0.002698
			-0.024661 -0.036936 -0.010081
			-0.018656 -0.054260  0.006758
			-0.014927 -0.052581  0.001055
			-0.012473 -0.051315 -0.006754
			-0.024715 -0.044136  0.016909
			-0.026793 -0.048065  0.014322
			-0.024143 -0.041417  0.009814
			-0.024264 -0.035287  0.016111
			-0.024485 -0.034816  0.012746
			-0.027756 -0.051636  0.013624
			-0.028573 -0.051880  0.011771
			-0.027008 -0.054432  0.010216
			-0.022067 -0.055712  0.009827
			-0.023771 -0.035769  0.009816
			-0.021195 -0.033799  0.007593
			-0.018223 -0.032674  0.002302
			-0.016631 -0.032679  0.006235
			-0.015583 -0.045737 -0.015481
			-0.022441 -0.042470 -0.023187
			-0.023062 -0.039519 -0.012592
			-0.019826 -0.042242 -0.014054
			-0.013753 -0.048304 -0.014013
			-0.012253 -0.050961 -0.013542
			-0.025342 -0.034755 -0.010429
			-0.022631 -0.032257 -0.006092
			-0.024406 -0.032884 -0.010085
			-0.016898 -0.029804 -0.000475
			-0.020559 -0.030187 -0.005272
			-0.025495 -0.034739 -0.013753
			-0.020233 -0.058216  0.009766
			-0.016147 -0.056428  0.004832
			-0.012403 -0.054679 -0.002460
			-0.011002 -0.053869 -0.009154
			-0.021764 -0.046309  0.019476
			-0.022510 -0.043404  0.020133
			-0.021285 -0.049219  0.016314
			-0.021520 -0.040060  0.021594
			-0.023556 -0.034802  0.019656
			-0.023818 -0.031819  0.012946
			-0.024122 -0.031449  0.016065
			-0.023670 -0.031882  0.019528
			-0.022107 -0.032574  0.010432
			-0.027280 -0.054663  0.013411
			-0.025563 -0.056641  0.012178
			-0.020505 -0.058416  0.012112
			-0.013589 -0.029047  0.010682
			-0.019535 -0.030453  0.011463
			-0.008617 -0.025647  0.006175
			-0.007582 -0.025743  0.009873
			-0.019171 -0.046868 -0.022238
			-0.016170 -0.048985 -0.020608
			-0.021771 -0.042140 -0.025095
			-0.020898 -0.043854 -0.028979
			-0.019241 -0.046662 -0.028141
			-0.023154 -0.040717 -0.025737
			-0.020997 -0.042352 -0.018301
			-0.023501 -0.040672 -0.019263
			-0.024073 -0.038439 -0.022827
			-0.023545 -0.040426 -0.016030
			-0.013357 -0.051259 -0.016890
			-0.011040 -0.053566 -0.017185
			-0.024343 -0.032929 -0.013316
			-0.018053 -0.027151 -0.007554
			-0.009092 -0.024142  0.002673
			-0.007405 -0.020732  0.000034
			-0.025354 -0.034559 -0.016958
			-0.024634 -0.032595 -0.016706
			-0.017342 -0.060305  0.009600
			-0.016981 -0.060247  0.011699
			-0.015279 -0.059360  0.006060
			-0.009930 -0.056689 -0.008727
			-0.019531 -0.042416  0.024490
			-0.017903 -0.045033  0.025268
			-0.017292 -0.047857  0.021213
			-0.020774 -0.042886  0.022641
			-0.020314 -0.052042  0.015787
			-0.017602 -0.051034  0.017039
			-0.017415 -0.039342  0.025639
			-0.020427 -0.036333  0.024281
			-0.021546 -0.033288  0.022932
			-0.022049 -0.030202  0.013650
			-0.022366 -0.030413  0.016779
			-0.018968 -0.032035  0.023488
			-0.008456 -0.030963  0.022683
			 0.002202 -0.030808  0.029434
			-0.018194 -0.054405  0.014960
			-0.016008 -0.056764  0.014678
			-0.007453 -0.027500  0.013236
			-0.013820 -0.029363  0.013851
			-0.018999 -0.029748  0.014928
			-0.005317 -0.022105  0.004214
			-0.005134 -0.023746  0.007597
			-0.005499 -0.025605  0.010752
			-0.015821 -0.048560 -0.027920
			-0.013682 -0.051257 -0.020126
			-0.011424 -0.050159 -0.025626
			-0.021814 -0.042070 -0.027257
			-0.021544 -0.041828 -0.030679
			-0.020078 -0.043554 -0.031808
			-0.017898 -0.045992 -0.031860
			-0.023636 -0.037786 -0.029177
			-0.024083 -0.036338 -0.026146
			-0.024706 -0.034557 -0.019942
			-0.024071 -0.033462 -0.022962
			-0.008520 -0.055694 -0.020001
			-0.009376 -0.052718 -0.022207
			-0.012107 -0.024095 -0.008381
			-0.006772 -0.019857 -0.002981
			-0.005186 -0.020632  0.000971
			-0.004764 -0.020056 -0.002125
			-0.024141 -0.031552 -0.019785
			-0.009220 -0.023133 -0.010444
			-0.014405 -0.027639 -0.015773
			-0.022336 -0.030129 -0.019061
			-0.015320 -0.062824  0.011769
			-0.015615 -0.062833  0.009083
			-0.009399 -0.054422  0.020604
			-0.003442 -0.055445  0.023699
			-0.005883 -0.059435  0.019093
			-0.010453 -0.060235 -0.005722
			-0.007769 -0.058711 -0.017789
			-0.014447 -0.043807  0.028319
			-0.012863 -0.039992  0.028934
			-0.013321 -0.046539  0.027040
			-0.008928 -0.048111  0.028603
			-0.015637 -0.053475  0.016654
			-0.013945 -0.031856  0.026305
			-0.004821 -0.031134  0.020966
			 0.006323 -0.030669  0.028930
			-0.001397 -0.032934  0.030785
			 0.004233 -0.031574  0.029792
			-0.000690 -0.028122  0.012856
			-0.002384 -0.029660  0.015441
			 0.006283 -0.031293  0.022413
			-0.002318 -0.022389  0.005493
			-0.002228 -0.023865  0.008830
			-0.014366 -0.047844 -0.031661
			-0.005385 -0.050924 -0.028226